bilayer

11 atom types
10 bond types
13 angle types

5432 atoms
4304 bonds
3944 angles

0.000000 65.753487 xlo xhi
0.000000 65.753487 ylo yhi
0.000000 67.006599 zlo zhi

Masses

1 27.000000 # TC5
2 54.000000 # C1s
3 56.000000 # C1
4 42.000000 # SC3
5 41.000000 # SP2q
6 26.000000 # TC5s
7 28.000000 # TP2q
8 56.000000 # C4
9 31.000000 # TP6
10 30.000000 # TP6s
11 80.000000 # SQ4

Pair Coeffs # id, epsilon [kcal/mol], sigma [Angstroms]

 1 0.0e00 1.0e00 # TC5
 2 0.0e00 1.0e00 # C1s
 3 0.0e00 1.0e00 # C1
 4 0.0e00 1.0e00 # SC3
 5 0.0e00 1.0e00 # SP2q
 6 0.0e00 1.0e00 # TC5s
 7 0.0e00 1.0e00 # TP2q
 8 0.0e00 1.0e00 # C4
 9 0.0e00 1.0e00 # TP6
 10 0.0e00 1.0e00 # TP6s
 11 0.0e00 1.0e00 # SQ4

Atoms

1 1 1  23.989630 31.642593 39.954445
2 1 2  24.798149 28.758333 42.345371
3 1 3  24.727678 25.370001 46.141964
4 1 3  21.750715 22.435715 47.767323
5 1 4  19.026190 21.198809 50.779999
6 1 5  16.212196 19.200001 51.455368
7 1 6  15.298846 17.506538 50.478077
8 1 7  13.276785 18.707500 50.924999
9 1 8  11.166607 20.457678 49.189106
10 1 7  11.442501 23.980000 48.561073
11 1 6  12.153077 26.136538 47.730000
12 1 5  13.462194 24.980488 46.438049
13 1 4  14.614285 24.956429 43.172859
14 1 3  15.995536 25.379642 38.895893
15 1 3  17.049465 26.961250 34.321606
16 1 2  17.767963 29.387962 30.110371
17 1 1  18.164076 31.543333 27.081852
18 2 1  63.106667 28.938890 30.927036
19 2 2  60.617962 27.634815 33.159073
20 2 3  59.478573 27.550892 37.125538
21 2 3  60.171967 26.703571 42.149822
22 2 4  60.658810 25.815001 46.230953
23 2 5  58.192928 25.525610 48.521709
24 2 6  56.113461 24.921539 48.340385
25 2 7  56.472145 24.503572 50.746784
26 2 8  55.395893 22.328928 53.318214
27 2 7  53.070358 22.927143 55.726070
28 2 6  51.102306 22.546154 54.257309
29 2 5  51.105122 24.666098 54.123173
30 2 4  51.723095 25.884285 51.151428
31 2 3  53.946426 28.660357 49.063927
32 2 3  55.940178 29.774107 44.867321
33 2 2  58.053703 31.661110 41.302776
34 2 1  59.961483 34.845924 41.532963
35 3 1  62.457035 62.655556 32.403336
36 3 2  62.917595 59.915188 34.924446
37 3 3  64.546944 57.259823 38.873394
38 3 3  0.321825 56.138214 43.456070
39 3 4  1.645000 55.031666 47.534760
40 3 5  2.995854 53.598782 50.541706
41 3 6  1.672692 53.516922 52.397308
42 3 7  3.030000 51.581432 52.709286
43 3 8  2.511071 49.270538 54.860176
44 3 7  0.067537 48.305355 53.325001
45 3 6  65.487694 50.483078 52.227692
46 3 5  0.541220 49.393658 50.497318
47 3 4  65.291168 50.943096 47.211189
48 3 3  64.243393 52.218395 43.006428
49 3 3  62.416607 53.455357 38.464821
50 3 2  60.487965 54.395927 34.182777
51 3 1  60.236298 53.949261 30.763704
52 4 1  29.392221 23.843704 23.647408
53 4 2  29.827593 22.418333 27.088703
54 4 3  30.636606 21.261608 31.955713
55 4 3  31.416071 20.309465 36.815716
56 4 4  32.147141 18.192381 40.554523
57 4 5  30.815611 17.488781 43.629753
58 4 6  30.430386 15.391154 44.272694
59 4 7  30.414644 16.422142 46.427856
60 4 8  27.438929 15.473036 46.623569
61 4 7  25.213215 14.593214 43.970001
62 4 6  23.436924 16.063076 43.057690
63 4 5  25.086586 17.047562 42.007805
64 4 4  23.662380 16.761667 39.443810
65 4 3  19.428928 15.767322 38.795536
66 4 3  14.705893 15.436786 39.218750
67 4 2  10.222222 17.182592 38.343147
68 4 1  6.890740 17.521851 36.749630
69 5 1  21.764814 54.794075 32.838890
70 5 2  21.642776 54.150925 36.685001
71 5 3  21.932142 53.446072 41.786964
72 5 3  24.423571 50.832500 44.657143
73 5 4  27.453096 48.494522 46.449287
74 5 5  27.821220 47.735367 49.985367
75 5 6  28.221539 46.172691 51.543846
76 5 7  26.720715 47.588928 52.830002
77 5 8  26.059643 49.748753 55.394646
78 5 7  23.183929 51.888214 55.913574
79 5 6  22.873846 54.315384 55.930771
80 5 5  23.229511 54.125610 53.802197
81 5 4  21.892143 56.440952 51.551907
82 5 3  22.022322 57.151608 47.203751
83 5 3  22.657499 57.605354 42.229107
84 5 2  23.552778 58.001667 37.369446
85 5 1  23.833334 58.605186 33.524445
86 6 1  53.321854 60.982960 42.293705
87 6 2  53.990185 61.934261 45.813889
88 6 3  52.878391 63.855713 50.014465
89 6 3  52.515179 2.227143 52.761429
90 6 4  52.808807 5.685714 55.457382
91 6 5  53.120243 8.083415 57.766586
92 6 6  51.792690 9.072693 59.209618
93 6 7  53.171070 7.980000 60.786785
94 6 8  55.738571 9.471251 61.492680
95 6 7  58.006428 10.227857 58.665714
96 6 6  59.351540 8.993077 57.041924
97 6 5  57.540001 7.876341 56.729271
98 6 4  56.712383 6.552857 53.465000
99 6 3  55.106071 5.529107 49.544998
100 6 3  53.496609 5.249107 44.740711
101 6 2  51.760372 4.790000 40.251667
102 6 1  48.916294 3.895926 38.145554
103 7 1  28.458519 59.559631 30.473333
104 7 2  28.038889 58.629444 33.991482
105 7 3  30.499464 57.605354 38.049107
106 7 3  31.803392 56.926964 42.589821
107 7 4  32.299049 55.705952 46.784046
108 7 5  32.524635 55.268780 50.242439
109 7 6  33.613846 54.198078 51.870384
110 7 7  34.188213 56.453217 52.470356
111 7 8  32.298035 57.130894 54.323395
112 7 7  29.640715 54.684284 53.995716
113 7 6  27.424616 53.915771 53.670002
114 7 5  27.744635 54.585121 51.615364
115 7 4  25.944761 55.531666 49.019524
116 7 3  26.423214 55.541073 45.111069
117 7 3  26.893751 55.506248 40.642502
118 7 2  26.926851 54.487961 35.858891
119 7 1  27.952593 54.130371 32.267040
120 8 1  60.995186 36.187778 23.425184
121 8 2  58.030556 37.366852 25.574259
122 8 3  57.513573 36.983929 30.104822
123 8 3  57.840714 35.855892 34.959286
124 8 4  57.411194 36.194046 38.890953
125 8 5  54.709999 36.445610 41.533413
126 8 6  52.744232 37.256924 40.601925
127 8 7  52.074642 37.068928 42.881073
128 8 8  50.733036 39.896786 44.587856
129 8 7  48.747143 42.041073 43.372143
130 8 6  48.313850 44.361538 42.806923
131 8 5  48.919998 43.765121 40.872681
132 8 4  49.174522 44.037144 37.392143
133 8 3  48.490894 44.199108 33.066788
134 8 3  47.579288 44.096966 28.066607
135 8 2  46.461666 44.107407 23.200371
136 8 1  45.672962 44.599258 19.460371
137 9 1  40.458145 23.307037 39.128147
138 9 2  39.340370 23.847408 42.666851
139 9 3  39.328033 25.998751 46.863926
140 9 3  40.755180 28.491964 50.974464
141 9 4  41.808334 30.069286 54.938808
142 9 5  43.221462 31.315855 58.231464
143 9 6  41.594231 31.400770 59.759617
144 9 7  43.526787 31.862141 61.120712
145 9 8  44.694286 34.545715 61.235893
146 9 7  47.437141 35.275356 59.113571
147 9 6  48.570389 33.416538 58.085384
148 9 5  47.313171 33.969757 56.424389
149 9 4  45.568333 32.818810 53.672855
150 9 3  43.324642 32.335892 49.815891
151 9 3  40.797501 30.749643 45.771606
152 9 2  38.437222 28.699999 41.863148
153 9 1  37.313332 27.271482 38.618149
154 10 1  53.634075 5.975555 36.062962
155 10 2  55.751850 7.315000 38.810184
156 10 3  57.303570 8.949643 43.001785
157 10 3  60.127857 10.459643 46.366787
158 10 4  62.781429 10.885238 49.231190
159 10 5  63.127071 14.113171 50.070244
160 10 6  64.510002 15.329230 51.371155
161 10 7  64.142143 16.894642 49.668213
162 10 8  62.354286 19.996965 49.048752
163 10 7  59.775002 21.370001 46.973572
164 10 6  58.261154 22.325768 45.417694
165 10 5  59.819267 21.835365 43.917561
166 10 4  57.951191 21.817619 41.365715
167 10 3  55.096607 19.898750 39.286430
168 10 3  51.143929 19.110537 37.565357
169 10 2  48.825371 15.230556 37.043148
170 10 1  49.624443 11.909260 38.519260
171 11 1  28.072222 2.255556 27.963333
172 11 2  28.088520 1.465556 31.771111
173 11 3  28.243750 0.911786 36.899998
174 11 3  27.993572 65.655678 41.959465
175 11 4  27.600475 65.162857 46.417381
176 11 5  27.543415 65.034637 49.852436
177 11 6  27.738846 0.103637 51.926155
178 11 7  26.641430 63.827499 52.412144
179 11 8  24.545893 62.453571 55.319645
180 11 7  21.895716 61.110355 56.836788
181 11 6  19.877308 61.804615 55.693844
182 11 5  20.274145 59.907318 54.563171
183 11 4  19.001429 59.993332 51.089527
184 11 3  18.762678 59.654999 46.727142
185 11 3  19.376965 59.648750 41.651783
186 11 2  19.680000 59.093334 36.819073
187 11 1  18.944445 57.954815 33.606667
188 12 1  0.541111 39.978889 28.001482
189 12 2  0.010847 37.472595 30.490000
190 12 3  0.709504 35.372501 34.560894
191 12 3  3.274643 32.031963 36.175716
192 12 4  6.136905 29.094286 37.232143
193 12 5  7.607317 28.768293 40.327316
194 12 6  7.870000 28.183460 42.418846
195 12 7  9.405357 30.016428 42.409286
196 12 8  8.783750 33.375893 42.886787
197 12 7  9.372143 36.745712 43.785358
198 12 6  11.687693 37.223461 44.512306
199 12 5  11.081707 39.239269 43.857315
200 12 4  11.832857 40.880714 41.388569
201 12 3  10.736608 42.125534 37.301430
202 12 3  8.990714 42.736965 32.590000
203 12 2  7.173148 42.840370 27.899075
204 12 1  5.691111 42.948891 24.338518
205 13 1  62.213703 4.354815 35.863705
206 13 2  63.517406 2.525370 39.052406
207 13 3  65.208908 0.366091 43.254642
208 13 3  0.609643 63.969646 47.695000
209 13 4  0.735000 62.274525 51.781666
210 13 5  0.074989 61.273170 55.200001
211 13 6  1.254615 59.778847 56.367691
212 13 7  64.896790 59.161427 57.196426
213 13 8  63.348213 56.612144 55.554287
214 13 7  62.217144 53.875359 53.944286
215 13 6  59.847305 54.112694 54.168079
216 13 5  59.966831 54.871952 52.093414
217 13 4  58.557381 54.715000 48.960003
218 13 3  57.626251 54.745892 44.639107
219 13 3  56.956429 53.450180 40.128750
220 13 2  55.714630 49.789631 37.088520
221 13 1  54.114819 48.436295 34.350368
222 14 1  8.069259 11.643703 26.934074
223 14 2  7.154815 10.540186 30.306667
224 14 3  7.500357 9.296250 35.098751
225 14 3  7.904464 8.862679 40.094643
226 14 4  6.567619 8.085476 43.944050
227 14 5  5.829024 7.638781 47.028538
228 14 6  5.681538 8.558846 49.057308
229 14 7  4.022500 6.946786 49.460003
230 14 8  5.337678 5.177679 52.002323
231 14 7  7.684643 3.315357 53.827145
232 14 6  7.535385 1.173462 52.701538
233 14 5  9.349024 1.813171 51.759510
234 14 4  8.517381 1.988571 49.066189
235 14 3  5.732321 2.940000 46.173752
236 14 3  3.704822 4.284286 41.688572
237 14 2  1.344815 4.819445 37.421295
238 14 1  65.227036 5.025926 34.127777
239 15 1  14.980370 55.329262 35.327778
240 15 2  16.990927 55.225002 38.429813
241 15 3  17.774822 55.288929 43.098930
242 15 3  17.810179 54.339462 48.094105
243 15 4  19.069046 53.254761 51.909523
244 15 5  19.333172 52.637562 55.185368
245 15 6  20.174231 51.400383 56.786156
246 15 7  19.493929 53.255001 58.170002
247 15 8  20.587322 56.328751 59.681965
248 15 7  19.040001 58.860001 59.779999
249 15 6  16.605385 59.011925 59.486923
250 15 5  17.113659 58.508537 57.429512
251 15 4  15.454286 56.967381 55.092381
252 15 3  14.864465 57.101608 50.707859
253 15 3  14.221429 57.247322 45.713036
254 15 2  13.183703 57.554260 40.772778
255 15 1  12.363704 58.142593 37.171112
256 16 1  47.508518 7.533333 32.946667
257 16 2  46.957405 7.036852 36.583519
258 16 3  47.992859 8.441250 40.871605
259 16 3  51.707500 9.542321 44.203392
260 16 4  54.797142 10.024762 47.381905
261 16 5  56.688293 11.020488 50.295364
262 16 6  58.576923 10.098461 51.054230
263 16 7  57.660355 10.665358 53.170357
264 16 8  58.628750 13.136786 55.817322
265 16 7  58.950714 16.048571 57.625004
266 16 6  56.805000 17.214615 58.005386
267 16 5  57.229023 17.967562 56.038052
268 16 4  55.916664 17.119762 53.515476
269 16 3  54.274643 14.609107 50.811249
270 16 3  53.526966 14.697500 46.048927
271 16 2  54.842037 13.508518 41.802963
272 16 1  53.530369 13.685926 38.209629
273 17 1  27.825558 45.948521 29.878889
274 17 2  29.742407 45.616112 33.056110
275 17 3  32.493214 47.180180 36.899464
276 17 3  35.326607 49.004822 40.648037
277 17 4  38.024044 49.744762 44.082619
278 17 5  40.226341 49.665855 46.823902
279 17 6  40.970768 50.875771 48.564228
280 17 7  40.616074 48.893570 49.802498
281 17 8  38.296249 47.406071 52.384464
282 17 7  36.905716 44.763214 52.357502
283 17 6  34.845383 44.382690 51.108463
284 17 5  35.998779 45.343658 49.442680
285 17 4  34.988331 47.305950 46.964283
286 17 3  32.031429 47.758930 43.664108
287 17 3  28.799286 47.134464 39.941967
288 17 2  26.238333 46.647224 35.764816
289 17 1  25.644073 48.094818 32.414074
290 18 1  29.719999 9.321852 27.690001
291 18 2  30.325741 9.815926 31.457222
292 18 3  30.557858 9.281608 36.398037
293 18 3  30.529821 8.282321 41.385357
294 18 4  30.377619 7.468333 45.806904
295 18 5  30.440001 7.182683 49.473656
296 18 6  29.150385 7.654615 51.193462
297 18 7  29.761786 5.465000 51.949287
298 18 8  32.447678 5.619822 53.979820
299 18 7  35.021786 5.190000 52.515358
300 18 6  36.408844 3.255385 51.883076
301 18 5  34.904392 3.153415 50.253170
302 18 4  33.617142 3.168571 47.135002
303 18 3  32.349823 3.610000 43.008751
304 18 3  31.086964 4.457322 38.097500
305 18 2  30.197592 5.361296 33.287594
306 18 1  30.257408 5.650741 29.531853
307 19 1  57.082222 60.122963 41.126297
308 19 2  58.274258 59.683334 44.692780
309 19 3  57.536610 59.602142 49.196606
310 19 3  53.146965 59.125000 50.979286
311 19 4  51.203571 58.492142 54.523808
312 19 5  50.297073 58.157318 57.656586
313 19 6  49.335388 57.556923 59.555386
314 19 7  51.586071 57.638569 60.435360
315 19 8  51.448036 59.922680 62.245537
316 19 7  49.231426 61.887142 62.267857
317 19 6  47.515770 60.616920 61.067310
318 19 5  48.708294 61.424877 59.385853
319 19 4  48.345715 62.634525 56.546665
320 19 3  48.852680 62.546967 52.453751
321 19 3  46.532322 65.696388 50.069820
322 19 2  44.014816 2.813889 47.198334
323 19 1  42.108887 2.888148 44.094444
324 20 1  29.232594 49.579998 33.888519
325 20 2  30.057592 51.350185 37.120743
326 20 3  33.075176 53.046604 40.702324
327 20 3  36.579285 54.529819 44.245178
328 20 4  39.441429 56.042858 47.260715
329 20 5  42.296829 56.404877 49.598293
330 20 6  42.599613 54.266151 50.118462
331 20 7  43.788929 55.220356 51.956783
332 20 8  42.024284 55.347679 55.018394
333 20 7  38.965000 55.180000 54.755714
334 20 6  37.914616 56.276924 52.863850
335 20 5  38.599514 54.516827 51.835609
336 20 4  37.543335 52.273335 49.653095
337 20 3  33.971249 51.789108 46.940178
338 20 3  30.117680 51.659107 43.567142
339 20 2  27.002407 50.801296 39.800926
340 20 1  25.348518 50.800743 36.297409
341 21 1  58.369629 64.083336 45.073334
342 21 2  58.065186 64.940720 48.662964
343 21 3  57.616249 0.441646 53.062325
344 21 3  57.577858 65.342995 58.006607
345 21 4  57.778336 64.615952 62.443096
346 21 5  58.042927 64.156586 66.037704
347 21 6  55.981537 64.201920 66.996376
348 21 7  57.357498 64.866783 1.828571
349 21 8  57.795002 1.933214 2.196964
350 21 7  60.402859 3.210000 0.115986
351 21 6  61.057308 1.455385 65.553841
352 21 5  59.610973 2.508293 64.287560
353 21 4  60.273811 2.803571 60.690475
354 21 3  60.523212 3.509464 56.282856
355 21 3  60.206966 4.641250 51.399109
356 21 2  58.666664 5.949630 46.904446
357 21 1  57.527779 4.888148 43.672966
358 22 1  39.519260 62.861481 33.299629
359 22 2  39.458332 63.997406 36.572594
360 22 3  36.654465 65.047302 39.051250
361 22 3  36.400177 64.034103 43.891430
362 22 4  36.880238 62.648571 47.810715
363 22 5  37.729267 61.028782 50.234146
364 22 6  37.239231 59.965771 52.114231
365 22 7  37.352859 62.036430 53.120716
366 22 8  35.343929 64.740517 54.074108
367 22 7  32.978928 0.390753 52.527500
368 22 6  31.252693 64.739609 51.505001
369 22 5  32.886097 64.246826 50.112926
370 22 4  32.452858 64.442619 46.678097
371 22 3  32.169819 65.029068 42.196430
372 22 3  32.468750 0.039860 37.226429
373 22 2  32.507221 1.193169 32.321297
374 22 1  32.658520 1.922963 28.551111
375 23 1  29.003704 42.182594 38.057407
376 23 2  30.033518 42.574627 41.649815
377 23 3  32.958752 42.005714 45.671070
378 23 3  36.101070 41.227501 49.617142
379 23 4  38.651905 40.197144 53.148811
380 23 5  39.089024 38.327316 55.629269
381 23 6  38.146923 36.310383 55.696156
382 23 7  36.970715 37.248569 57.546429
383 23 8  34.509819 38.063393 56.074287
384 23 7  33.811432 39.539642 52.693932
385 23 6  32.670769 41.573460 51.944614
386 23 5  31.466341 40.209755 50.819511
387 23 4  29.895000 40.564522 48.042858
388 23 3  27.494999 43.264641 45.391071
389 23 3  25.026249 46.369465 42.226608
390 23 2  22.035555 49.071850 39.395370
391 23 1  19.714815 50.214447 36.693333
392 24 1  16.834074 0.097576 35.706665
393 24 2  16.128519 0.110475 39.475925
394 24 3  15.544107 0.371984 44.424641
395 24 3  14.472143 0.376964 49.365356
396 24 4  12.657857 65.008072 53.332142
397 24 5  11.710000 0.480489 55.624634
398 24 6  11.680384 2.565769 56.236538
399 24 7  13.275714 1.801429 57.811783
400 24 8  16.699106 1.111983 57.108749
401 24 7  19.546070 0.022898 54.908215
402 24 6  20.865000 64.481155 53.253849
403 24 5  19.016830 64.686829 52.093903
404 24 4  19.570715 64.263336 48.447380
405 24 3  20.076786 63.890892 44.028927
406 24 3  20.222677 63.870003 39.025715
407 24 2  20.520185 63.148891 34.205555
408 24 1  20.626297 63.703331 30.535185
409 25 1  62.315926 20.638889 33.665928
410 25 2  63.041851 23.562777 35.294075
411 25 3  65.383736 27.032499 37.436962
412 25 3  2.183393 29.798035 40.878391
413 25 4  4.509286 31.713097 43.785000
414 25 5  4.722683 32.219513 47.430977
415 25 6  3.682693 31.233847 49.130001
416 25 7  3.696071 33.466072 49.997143
417 25 8  1.741250 35.697678 48.976429
418 25 7  3.415714 36.623928 46.192497
419 25 6  4.717692 36.808464 44.274998
420 25 5  3.190732 38.275364 43.640976
421 25 4  2.112857 38.685951 40.145237
422 25 3  0.343789 40.058571 36.300179
423 25 3  63.719109 41.483570 32.040535
424 25 2  62.062778 39.255001 28.494444
425 25 1  61.866669 35.977779 26.810741
426 26 1  37.224445 16.771481 29.793705
427 26 2  38.226852 15.867963 33.221664
428 26 3  37.161964 16.129107 37.840000
429 26 3  35.979465 16.579107 42.755894
430 26 4  34.749763 16.750477 46.964523
431 26 5  33.954636 15.586098 50.016586
432 26 6  35.689613 15.177692 51.349232
433 26 7  34.165356 16.100357 52.935719
434 26 8  32.993214 14.033214 54.633930
435 26 7  31.268929 11.563572 52.767857
436 26 6  32.624229 9.666923 52.004230
437 26 5  32.918537 10.860488 50.264633
438 26 4  32.873573 11.540953 46.858810
439 26 3  32.488930 12.288751 42.501606
440 26 3  32.120358 13.241607 37.511608
441 26 2  32.374447 16.302036 35.673149
442 26 1  33.945553 17.819630 32.751854
443 27 1  34.427036 26.333704 26.554815
444 27 2  34.495556 25.748705 30.333149
445 27 3  33.961430 25.330536 35.249645
446 27 3  34.236073 25.158215 40.247322
447 27 4  34.349762 24.715714 44.664047
448 27 5  34.029026 24.614147 48.346828
449 27 6  33.081921 22.705002 49.032307
450 27 7  34.318569 23.138214 51.006428
451 27 8  32.950180 24.803749 53.854107
452 27 7  33.748215 27.576071 54.964645
453 27 6  33.631538 29.681154 53.713078
454 27 5  35.182438 28.805367 52.457806
455 27 4  35.117619 29.096668 48.925713
456 27 3  34.506786 29.531071 44.543751
457 27 3  33.331070 29.524286 39.543392
458 27 2  32.516483 29.262964 34.617409
459 27 1  31.876665 29.199261 30.815186
460 28 1  16.059259 63.787407 31.382221
461 28 2  15.420000 61.803333 34.338333
462 28 3  15.832143 61.266251 39.152145
463 28 3  15.403750 61.410179 44.228752
464 28 4  14.387619 61.465950 48.546192
465 28 5  12.842926 61.703415 51.668293
466 28 6  13.035000 60.445770 53.485001
467 28 7  10.601429 60.644287 53.437500
468 28 8  8.829822 58.043392 52.224644
469 28 7  6.057858 57.083569 51.263927
470 28 6  5.180769 59.376537 51.817696
471 28 5  5.203659 59.653656 49.672440
472 28 4  5.814047 62.849998 47.840000
473 28 3  4.727500 64.677498 44.465000
474 28 3  3.287678 0.023609 39.893570
475 28 2  3.293333 0.884278 34.876850
476 28 1  3.804074 2.110741 31.309628
477 29 1  15.108149 44.570370 29.684816
478 29 2  13.779075 44.556480 33.073147
479 29 3  14.772857 43.786247 37.689819
480 29 3  15.862500 42.326607 42.406429
481 29 4  17.294048 39.971428 45.321903
482 29 5  18.071951 39.141708 48.778049
483 29 6  16.488077 39.622692 50.269230
484 29 7  18.449286 39.780357 51.750355
485 29 8  18.286785 39.870537 55.590534
486 29 7  18.481071 42.101074 57.441429
487 29 6  20.480385 43.255383 56.635769
488 29 5  18.988049 44.544392 55.656830
489 29 4  18.823570 44.854046 52.488094
490 29 3  19.537142 43.770538 49.102680
491 29 3  17.361607 46.221069 45.350182
492 29 2  14.480186 48.487595 42.653889
493 29 1  10.902222 49.815556 42.803333
494 30 1  59.800373 28.413334 26.923704
495 30 2  56.750370 28.682777 28.770926
496 30 3  55.165001 28.915358 33.270714
497 30 3  54.009644 28.209286 38.214108
498 30 4  52.937859 27.317381 42.370239
499 30 5  52.463169 26.223904 45.630978
500 30 6  53.138077 24.261923 46.414616
501 30 7  50.798573 24.169643 47.102142
502 30 8  48.479820 21.938751 45.426964
503 30 7  46.351070 19.316786 43.898212
504 30 6  45.085770 17.490385 44.876152
505 30 5  46.436340 16.332926 43.653660
506 30 4  45.600716 14.605952 41.239761
507 30 3  45.516785 11.949107 37.994823
508 30 3  45.451073 11.667679 33.277859
509 30 2  45.965000 13.888333 29.277407
510 30 1  46.486294 15.758148 26.419260
511 31 1  12.035556 7.300741 42.326298
512 31 2  9.783333 4.359630 42.492779
513 31 3  9.919286 0.571109 44.724464
514 31 3  10.240000 62.353752 46.751247
515 31 4  9.822857 58.022621 47.412857
516 31 5  10.316830 54.511951 48.148293
517 31 6  9.296538 53.835384 50.011539
518 31 7  11.278214 52.547855 50.272141
519 31 8  13.946964 50.758038 50.053211
520 31 7  13.705357 48.101429 47.930714
521 31 6  11.845769 46.598465 48.443848
522 31 5  11.254146 47.219269 46.399269
523 31 4  8.280477 47.698093 44.980713
524 31 3  6.509464 48.082142 40.890713
525 31 3  4.625179 49.090000 36.307499
526 31 2  2.549630 49.526482 31.811111
527 31 1  0.331893 48.674812 28.908520
528 32 1  52.567410 56.189259 37.700001
529 32 2  52.794815 56.479076 41.371109
530 32 3  53.003395 55.726070 46.148750
531 32 3  53.066071 54.219822 50.987320
532 32 4  53.638096 54.515236 55.104286
533 32 5  54.482925 53.915611 58.145367
534 32 6  53.698460 53.711540 60.201153
535 32 7  55.783569 54.634998 60.755714
536 32 8  57.391785 57.823391 61.285713
537 32 7  58.327858 60.911430 60.089645
538 32 6  60.445385 60.779232 58.850769
539 32 5  59.043415 61.130486 57.195370
540 32 4  59.949051 59.636429 53.850475
541 32 3  62.105179 57.961071 50.821251
542 32 3  62.365356 56.813038 46.047680
543 32 2  61.179630 57.873333 41.398888
544 32 1  59.734077 58.810741 38.049259
545 33 1  54.312222 34.007778 24.710369
546 33 2  54.062038 33.887962 28.539444
547 33 3  53.361427 33.430714 33.475895
548 33 3  52.824642 33.002499 38.490536
549 33 4  52.765476 33.035713 42.927856
550 33 5  52.508293 32.771221 46.666828
551 33 6  54.215385 33.826538 47.602306
552 33 7  52.840355 33.505356 49.575001
553 33 8  54.316608 34.224644 52.538036
554 33 7  55.796070 37.350357 53.506786
555 33 6  58.008846 37.755768 52.578461
556 33 5  56.873169 38.714878 50.993904
557 33 4  57.824524 36.970474 48.643333
558 33 3  58.529823 32.940716 46.983215
559 33 3  61.488392 31.324106 43.909466
560 33 2  62.476482 30.875740 39.160183
561 33 1  62.688148 31.939259 35.492222
562 34 1  62.147778 36.631851 36.512962
563 34 2  64.784241 35.349445 38.842407
564 34 3  0.903571 34.224998 43.048931
565 34 3  65.552284 32.171249 47.483036
566 34 4  63.312141 32.101429 50.689049
567 34 5  62.562439 30.654390 53.873173
568 34 6  64.097305 30.615768 55.439232
569 34 7  63.386429 28.354284 55.480000
570 34 8  65.087662 25.621607 56.176250
571 34 7  0.976429 23.272858 54.131073
572 34 6  65.519226 21.936153 52.502693
573 34 5  1.145122 22.925367 51.135124
574 34 4  65.742592 23.253334 47.626667
575 34 3  65.256027 24.867500 43.363392
576 34 3  63.238750 23.058929 40.386070
577 34 2  61.039074 19.083334 38.562222
578 34 1  58.254074 17.255556 37.498520
579 35 1  51.511482 30.895555 27.952963
580 35 2  50.989815 29.958704 31.595369
581 35 3  49.190536 28.427322 36.101608
582 35 3  47.564285 26.633749 40.492680
583 35 4  45.510239 25.841190 44.432144
584 35 5  43.458778 25.334635 47.519512
585 35 6  44.102692 26.776539 49.098846
586 35 7  43.448570 25.091070 50.620716
587 35 8  40.513573 23.168036 51.085716
588 35 7  38.008213 22.154644 48.855713
589 35 6  36.071156 20.727694 48.376541
590 35 5  37.074635 20.628292 46.471462
591 35 4  36.277382 21.117382 43.090950
592 35 3  36.006966 20.976070 38.654823
593 35 3  35.651608 21.178394 33.649464
594 35 2  36.742039 21.505556 29.314631
595 35 1  37.281853 23.005928 26.068890
596 36 1  18.152222 43.270000 34.445927
597 36 2  18.930555 41.509075 37.755924
598 36 3  20.150358 38.963215 41.831966
599 36 3  21.830000 36.051071 45.636070
600 36 4  23.594048 33.555477 49.018333
601 36 5  25.012928 32.990974 52.040489
602 36 6  25.270769 32.336155 54.148079
603 36 7  27.494642 31.983572 53.403572
604 36 8  29.649643 30.051786 52.208927
605 36 7  31.753929 31.341785 49.384281
606 36 6  32.726540 32.125000 47.281540
607 36 5  30.768049 31.714636 46.516830
608 36 4  29.836191 33.514523 43.532619
609 36 3  27.908749 35.864643 40.346252
610 36 3  26.420713 38.777500 36.486427
611 36 2  26.892036 40.858891 31.873888
612 36 1  26.750370 42.068886 28.319630
613 37 1  16.888147 48.153336 38.027039
614 37 2  18.581482 45.865002 40.481850
615 37 3  21.230536 43.017857 43.601429
616 37 3  23.975893 40.084820 46.829643
617 37 4  25.638573 37.095715 49.775002
618 37 5  26.509268 36.514633 53.057316
619 37 6  25.075769 36.026154 54.642689
620 37 7  27.016071 35.097145 55.686783
621 37 8  28.824821 36.965179 57.785713
622 37 7  29.363216 40.045357 57.679283
623 37 6  30.497692 39.863461 55.453846
624 37 5  28.417074 40.119270 54.793903
625 37 4  27.425714 41.934525 51.930473
626 37 3  25.213572 44.405891 48.900356
627 37 3  22.211607 47.202499 45.947323
628 37 2  19.333889 50.064816 43.069073
629 37 1  17.132963 51.597038 40.459259
630 38 1  27.770370 30.652964 32.014442
631 38 2  28.039074 29.825369 35.664814
632 38 3  28.972321 28.862320 40.472141
633 38 3  29.578930 26.168213 43.965000
634 38 4  28.744762 22.384047 46.050953
635 38 5  29.145611 20.761707 48.877319
636 38 6  30.770000 19.311539 49.441921
637 38 7  28.926428 18.394285 50.665714
638 38 8  28.751251 16.494106 53.920715
639 38 7  26.391785 15.525001 55.163929
640 38 6  24.627693 16.769615 54.046158
641 38 5  24.916584 15.332195 52.464149
642 38 4  24.630953 17.002857 49.256428
643 38 3  24.646250 19.375893 45.507500
644 38 3  25.002678 23.092142 42.083752
645 38 2  24.080555 26.202408 38.897221
646 38 1  23.001112 29.217407 36.988148
647 39 1  1.037037 15.690001 23.014814
648 39 2  65.288246 13.018148 25.330185
649 39 3  63.034645 9.614643 28.372679
650 39 3  63.158035 8.565000 32.913391
651 39 4  64.278336 8.603571 37.227859
652 39 5  64.687561 8.335609 40.723415
653 39 6  65.550980 8.024615 42.730000
654 39 7  63.923569 9.654643 43.361073
655 39 8  63.881248 13.186250 43.900356
656 39 7  62.608215 14.643571 41.591431
657 39 6  62.702690 15.881924 39.451538
658 39 5  63.294392 13.867560 38.768539
659 39 4  61.462143 13.528571 35.744999
660 39 3  58.852856 15.454643 32.934643
661 39 3  54.234463 16.285715 32.473930
662 39 2  49.552963 16.706667 31.572592
663 39 1  47.967033 17.971851 28.706667
664 40 1  63.275558 52.215923 29.860001
665 40 2  63.592777 50.432964 32.828888
666 40 3  65.572281 49.221249 37.203392
667 40 3  1.674286 48.161606 41.787682
668 40 4  3.367381 46.481190 45.572857
669 40 5  4.165854 45.609268 48.855854
670 40 6  5.269616 44.334999 50.284229
671 40 7  3.311786 44.852501 51.631432
672 40 8  1.633750 43.523212 54.041965
673 40 7  1.075357 41.108215 55.387856
674 40 6  64.991920 40.241154 53.999233
675 40 5  0.831951 39.757072 52.662682
676 40 4  1.645238 40.593334 49.456429
677 40 3  3.053393 41.859287 45.448750
678 40 3  2.627857 43.445538 40.605713
679 40 2  1.687222 44.822224 35.832035
680 40 1  0.594445 45.221111 32.146297
681 41 1  12.772964 40.321480 26.689999
682 41 2  13.065186 40.653889 30.482222
683 41 3  14.252143 39.709820 35.340714
684 41 3  15.325714 37.573395 39.767498
685 41 4  16.317142 35.757618 43.692616
686 41 5  14.939268 35.453659 46.621464
687 41 6  15.046538 33.969616 48.236153
688 41 7  14.699286 35.892857 49.632858
689 41 8  11.457679 37.137142 49.767677
690 41 7  9.766071 39.197498 47.584999
691 41 6  7.959616 38.905388 45.953846
692 41 5  7.903659 41.091709 46.099270
693 41 4  7.530714 43.015717 43.208572
694 41 3  6.724643 44.214287 39.013214
695 41 3  5.651072 45.193394 34.136429
696 41 2  3.851852 45.437222 29.566668
697 41 1  2.032222 44.024445 26.608889
698 42 1  14.171111 17.735926 30.220741
699 42 2  13.963703 14.660926 32.171665
700 42 3  15.524285 11.788571 35.933571
701 42 3  17.146786 9.155178 40.015892
702 42 4  18.549763 7.613571 43.607857
703 42 5  20.375366 8.568048 46.739269
704 42 6  19.338461 10.257692 47.672306
705 42 7  20.405355 9.532500 49.579285
706 42 8  20.342678 6.718215 51.381607
707 42 7  21.171429 3.257857 51.739643
708 42 6  22.884230 1.521538 51.799999
709 42 5  22.578049 1.522195 49.698292
710 42 4  23.546429 1.429762 46.488335
711 42 3  23.787857 1.257857 42.058571
712 42 3  23.906429 1.391786 36.927502
713 42 2  23.703333 1.769630 32.012779
714 42 1  22.855186 0.799630 28.565926
715 43 1  57.249256 45.091110 43.194073
716 43 2  57.689445 48.551296 41.833889
717 43 3  59.819107 50.768391 44.798393
718 43 3  61.248928 51.141964 49.498035
719 43 4  61.882381 50.017857 53.625240
720 43 5  62.475609 48.904877 56.795124
721 43 6  62.397690 48.104618 58.878078
722 43 7  64.737144 48.595718 58.785000
723 43 8  1.540914 51.182320 59.844643
724 43 7  4.014286 52.641785 58.603573
725 43 6  4.387692 54.895000 57.758846
726 43 5  2.479268 54.413170 56.716095
727 43 4  1.923571 56.774761 53.845474
728 43 3  1.301786 58.700893 49.979820
729 43 3  0.862698 60.102322 45.035358
730 43 2  0.814444 61.695740 40.245739
731 43 1  1.242222 62.094814 36.432224
732 44 1  6.636296 30.448149 23.985186
733 44 2  8.107038 28.773148 26.653334
734 44 3  8.800714 25.650000 30.007322
735 44 3  7.902500 22.938036 34.079105
736 44 4  7.035000 20.863333 37.957382
737 44 5  7.089025 19.781464 41.299511
738 44 6  7.966538 17.939232 42.217308
739 44 7  9.033215 19.424286 43.690716
740 44 8  7.622321 18.881071 46.818394
741 44 7  5.533571 16.745358 47.003212
742 44 6  4.717692 16.221153 44.759998
743 44 5  6.194390 14.670244 44.884636
744 44 4  7.611905 13.307619 41.807621