ITEM: TIMESTEP
73232
ITEM: NUMBER OF ATOMS
5432
ITEM: BOX BOUNDS pp pp pp
0.000000e+00 6.000000e+01
0.000000e+00 6.000000e+01
0.000000e+00 1.000000e+02
ITEM: ATOMS id x y z
1 23.037960 20.486118 52.923462
2 23.352892 22.294397 56.103695
3 22.048111 22.404976 60.448421
4 20.942596 23.204990 64.906548
5 19.622290 22.931599 68.677155
6 18.024046 24.022814 71.701126
7 18.649286 22.502914 73.193985
8 16.919514 23.549751 74.429436
9 13.784817 24.034605 74.659950
10 11.509308 24.452702 72.599396
11 11.977457 25.793594 70.595795
12 12.262660 23.814594 69.724297
13 11.664500 22.964251 66.539062
14 12.759406 21.683302 62.956615
15 13.397449 20.849140 58.953682
16 16.290348 18.924589 56.140575
17 16.582123 20.640158 53.075909
18 57.438885 20.948111 51.505455
19 56.725285 19.708597 54.858181
20 54.907070 20.514231 59.294140
21 54.499191 22.080080 64.143654
22 52.002411 23.655079 66.944176
23 50.901249 24.272266 69.992912
24 50.586803 22.335192 71.054665
25 51.855270 23.489376 72.739578
26 49.684525 24.288401 74.549858
27 46.873577 25.113737 73.084549
28 45.668587 26.635281 71.612358
29 46.869419 25.661314 70.075256
30 47.512840 27.176268 67.072899
31 47.669842 28.500639 63.269688
32 48.064182 29.376745 59.247978
33 48.755733 28.573219 55.067387
34 51.384121 27.079966 53.233398
35 55.121181 53.776325 50.988571
36 57.358101 51.557419 52.792545
37 57.761932 49.851707 56.887131
38 58.117352 51.212772 61.812714
39 57.345802 49.480564 65.389999
40 56.861916 48.232468 68.741844
41 58.930515 48.847126 69.384033
42 58.208488 47.865746 71.428841
43 56.982285 45.169025 72.401184
44 54.996788 43.662045 70.739349
45 53.615368 45.305801 69.515648
46 54.768131 44.452938 67.830841
47 54.049133 45.786690 64.690063
48 52.770565 46.306858 60.937611
49 50.648212 47.315929 56.935768
50 49.511547 45.175869 53.724152
51 50.101093 45.371044 50.070316
52 29.743073 17.938328 50.268517
53 28.919016 16.328630 53.563499
54 26.991777 15.949903 57.813244
55 26.977707 17.074268 62.807285
56 24.901194 15.694874 65.969612
57 23.785725 15.056619 69.055428
58 24.354963 13.143878 70.037910
59 24.842060 14.658378 71.842812
60 22.577934 13.938569 73.606064
61 20.026619 13.036729 72.081261
62 18.804420 14.014067 70.206139
63 20.335136 12.920156 69.070946
64 20.109030 13.031782 65.631470
65 20.409624 11.408571 61.881100
66 20.281439 10.248756 57.855438
67 21.163324 11.183532 53.721249
68 21.783112 14.337428 51.824017
69 25.193298 45.157688 50.150875
70 24.033297 43.080303 53.044220
71 22.177309 42.404869 57.243690
72 23.021997 43.222862 62.239071
73 20.949060 43.799133 65.702446
74 19.862803 44.990269 68.820473
75 21.143347 43.575363 70.012581
76 20.958340 45.298058 71.638382
77 19.045315 46.979568 73.714401
78 17.172815 49.445118 72.849419
79 17.750528 51.644909 71.919823
80 17.987120 50.456509 70.097557
81 17.067892 51.727459 66.855011
82 16.860365 51.186451 62.823055
83 17.075356 50.464127 58.254261
84 18.601046 52.274178 54.495190
85 19.427256 50.780388 51.427555
86 37.265961 2.571788 51.410351
87 36.960358 2.597374 55.149876
88 38.509453 2.295405 59.524567
89 39.730022 59.764374 63.787624
90 41.810921 1.150307 66.921783
91 43.152588 1.808873 69.923882
92 41.661251 3.036999 71.044586
93 42.266930 1.507683 72.789497
94 44.280483 3.028098 74.305855
95 46.119328 5.051220 72.809586
96 47.313980 5.321314 70.705490
97 45.264778 5.317505 69.921829
98 44.905216 5.325278 66.418243
99 45.797760 5.429001 62.599293
100 47.312782 3.238713 58.699276
101 47.227215 4.142961 54.985443
102 44.874512 3.001418 52.692303
103 34.095184 46.965343 52.008156
104 31.829010 46.757122 55.069305
105 29.184544 47.605362 58.869629
106 28.939144 49.699005 63.561123
107 26.690746 48.671360 66.726250
108 25.628714 48.431522 69.680206
109 25.889126 47.185841 71.493286
110 27.008711 49.184013 72.255478
111 25.541811 50.073540 74.821991
112 22.506809 49.842255 74.609055
113 21.192923 50.638142 72.705116
114 22.317154 49.039265 71.679977
115 21.036667 48.883472 68.112640
116 20.582939 48.493744 63.864353
117 20.721666 47.331127 59.352993
118 19.677086 46.479027 55.298336
119 21.765150 46.480480 52.489311
120 51.011211 33.192238 52.194347
121 52.167786 31.461893 55.133808
122 51.685871 31.434185 59.937050
123 50.895645 31.875021 64.972305
124 48.239365 33.703606 67.411095
125 47.026756 35.299370 70.025970
126 46.332672 33.598495 71.299393
127 47.573711 34.844017 72.954865
128 45.508896 35.424042 75.166878
129 42.774048 36.343632 74.015038
130 42.191124 38.157497 72.476570
131 43.214386 36.821659 71.044281
132 43.359669 37.992863 67.764893
133 43.601303 37.620457 63.662895
134 44.511684 37.414165 59.114170
135 45.331406 37.836685 54.339123
136 47.101723 36.566799 51.402370
137 32.149414 24.930899 51.285542
138 33.238239 26.720041 54.478733
139 34.609360 28.089554 58.758854
140 33.556946 27.591959 63.751720
141 34.467266 29.490839 67.229668
142 35.177734 30.385201 70.548370
143 32.995037 30.443495 71.106827
144 33.934116 29.937595 73.257942
145 33.791260 32.392162 74.870171
146 34.421680 34.729275 73.062347
147 36.225693 33.989418 71.539963
148 34.590805 34.293941 70.081451
149 35.422703 34.555927 66.767487
150 35.061989 35.835606 62.919559
151 35.049023 36.266327 58.272842
152 35.963570 38.665558 54.764824
153 34.313957 38.573280 51.688171
154 52.331024 10.198553 50.028328
155 50.885647 9.039530 53.198837
156 49.801891 10.185725 57.578300
157 50.619713 10.714856 62.580799
158 51.236755 10.954088 66.990990
159 52.324749 11.583997 70.533577
160 50.657318 12.211418 71.881264
161 52.373352 11.809624 73.530281
162 53.151997 14.455846 75.197464
163 53.724415 17.391127 74.136414
164 55.260838 17.528822 72.197464
165 53.407726 18.110693 71.211845
166 52.345398 19.907301 68.687859
167 50.678799 19.557129 64.976982
168 49.572487 19.221123 60.483677
169 50.881512 18.844185 56.485836
170 48.575127 18.644629 53.675095
171 24.084032 58.459206 52.099007
172 26.209122 56.916729 54.630692
173 25.890413 56.027027 58.977051
174 25.377247 58.439991 63.473824
175 22.604319 58.582432 66.402847
176 20.934864 59.161999 69.445740
177 22.767996 58.558723 70.617188
178 21.604248 59.736626 72.336594
179 19.299818 58.498760 73.965332
180 17.129648 57.007069 72.359207
181 16.345943 58.325489 70.421257
182 16.877073 56.453625 69.408546
183 16.641676 56.428291 65.982956
184 15.385335 55.763298 62.184593
185 14.706500 55.886547 58.059132
186 16.103691 56.251301 53.967106
187 19.003942 57.705383 52.702229
188 2.404884 19.752377 49.896938
189 1.749202 21.559687 53.172474
190 2.434546 23.887840 57.154625
191 3.407144 23.639376 62.171474
192 3.093381 26.365448 65.181816
193 3.646272 27.963192 67.947456
194 2.075740 28.269817 69.490753
195 3.552415 26.844448 70.749168
196 4.647975 28.322170 73.241898
197 5.790545 30.823454 72.133003
198 7.272461 30.340874 70.228752
199 5.455058 30.839067 69.117584
200 6.108091 32.716572 66.047134
201 6.721215 33.336479 62.033554
202 7.469964 32.882217 57.989376
203 7.627818 30.101086 54.434486
204 8.498837 26.715433 53.952061
205 56.843849 56.888474 49.915871
206 58.235210 57.019855 53.473782
207 59.540817 57.324615 58.312317
208 0.770940 57.858284 63.245857
209 58.681278 58.251152 66.682961
210 56.688709 59.482643 69.446213
211 58.239071 59.174694 71.041199
212 56.339169 59.586693 72.443680
213 54.605110 57.367702 73.987816
214 52.986347 54.983761 72.599487
215 51.660099 55.929306 70.731003
216 52.453529 54.146214 69.739441
217 51.989822 54.219707 66.336823
218 50.218529 53.929695 62.716202
219 49.173470 54.250835 58.730713
220 49.617554 54.745804 54.481819
221 50.577503 52.296917 52.191315
222 6.909474 11.149487 49.453617
223 7.842854 9.789255 52.865410
224 7.745641 7.844733 57.107113
225 6.843590 8.529210 62.097988
226 5.521779 6.255752 65.181694
227 4.145655 5.541307 68.102036
228 5.724156 6.183087 69.559258
229 3.825611 7.209601 70.595619
230 2.482917 5.363828 72.544632
231 1.845499 2.509963 71.210838
232 0.267053 1.815304 69.472343
233 1.973184 2.257375 68.185028
234 1.676830 2.739436 64.868416
235 1.731676 2.030237 60.863831
236 1.013266 1.770574 56.664871
237 2.310510 3.219998 53.349190
238 5.307519 4.921262 54.143776
239 19.636232 41.674446 52.062550
240 18.031143 42.202717 55.485680
241 16.412294 43.853416 59.644844
242 17.102697 46.113422 64.204155
243 14.749994 48.261131 66.693695
244 13.391496 49.969120 69.347115
245 13.459789 48.134323 70.649956
246 13.622532 49.764397 72.369629
247 12.110810 52.304100 73.479530
248 11.085607 54.598885 71.744293
249 12.230468 55.624180 69.832474
250 11.431201 53.825573 68.843605
251 12.363325 53.309475 65.582047
252 11.965004 52.187775 61.683716
253 12.290545 51.570499 57.122238
254 14.266677 51.151573 53.244328
255 16.565619 48.347225 53.017887
256 44.622868 9.867772 49.284821
257 45.868908 8.336864 52.306782
258 45.965218 8.760612 57.125683
259 46.478745 9.511460 62.141941
260 45.319500 10.176887 66.162781
261 45.982948 10.156103 69.594093
262 47.581356 8.586701 69.329506
263 48.334850 9.522007 71.388954
264 46.984386 9.519788 74.172615
265 44.171032 10.850986 73.949600
266 44.367313 13.112287 72.973274
267 43.134235 12.172200 71.421082
268 42.917553 13.978301 68.433617
269 41.478413 14.929052 64.729538
270 40.686436 15.610432 60.283195
271 40.815628 16.817596 56.304581
272 40.859829 14.086829 53.919617
273 38.378513 48.745522 51.199787
274 37.052151 46.550472 54.024658
275 35.106155 44.809048 57.894691
276 34.825623 45.675941 62.943321
277 33.305794 43.926132 66.322243
278 32.482601 43.217331 69.649887
279 34.637802 43.212700 70.295372
280 33.677906 43.725441 72.401863
281 31.297068 43.155319 74.381927
282 28.487185 42.686062 73.459946
283 27.821356 44.056606 71.525749
284 28.077797 42.114079 70.533379
285 27.788418 41.974289 67.116020
286 26.735422 40.509914 63.452282
287 26.349745 40.440865 59.288063
288 28.686172 42.531250 55.590977
289 31.933857 42.926025 54.090649
290 20.728745 4.992262 49.953693
291 22.199188 5.737603 53.396851
292 23.420971 6.443873 58.215378
293 23.747120 7.510114 63.169281
294 25.114376 6.450057 66.944565
295 25.565975 5.437644 70.414207
296 25.461023 7.545408 71.209023
297 25.689701 6.373353 73.279427
298 28.481012 5.632194 74.062866
299 29.816109 4.220658 71.583656
300 28.413870 2.334218 70.798363
301 28.649069 3.422950 68.904182
302 28.679209 1.826081 65.893036
303 28.593475 2.379932 61.827206
304 27.416525 3.073156 57.365829
305 27.509302 2.576219 53.162102
306 25.061266 4.090305 50.920116
307 44.483421 59.365318 50.550560
308 44.900158 57.361637 53.383213
309 45.172207 57.048412 57.927406
310 45.682598 56.688454 62.589108
311 43.395382 56.352936 65.972107
312 42.441086 57.117332 69.186508
313 43.752472 55.623791 70.247597
314 43.824844 57.425564 71.835991
315 41.857143 56.968788 74.049667
316 39.127655 55.496735 73.570969
317 37.344376 54.880062 72.035133
318 38.841370 55.362228 70.525124
319 37.877644 56.095203 67.362289
320 36.849091 55.683533 63.403671
321 36.025177 56.587784 59.520149
322 35.148018 58.495258 55.624763
323 36.041595 57.662113 52.266163
324 31.924301 50.696846 50.668655
325 33.907593 50.977386 53.708656
326 33.427078 50.964882 58.146420
327 33.052544 51.771145 62.844738
328 33.155293 49.550594 66.282768
329 33.677650 49.175644 69.518250
330 35.760853 49.576031 70.200104
331 34.618919 51.083805 71.664452
332 33.811188 49.821453 74.262413
333 32.148163 47.187607 73.641434
334 29.945713 47.053677 72.568329
335 31.174847 46.549690 70.833504
336 29.824354 46.739014 67.653336
337 28.543900 45.157280 63.745819
338 25.627850 45.931503 60.248112
339 24.769531 46.546291 55.787422
340 26.228628 47.687412 52.623863
341 41.044075 3.197400 49.959316
342 41.305225 2.076543 53.544350
343 42.793240 1.794497 58.283638
344 44.211128 1.047837 63.122925
345 47.122272 1.618547 65.967407
346 48.451385 1.720781 68.872398
347 46.902275 1.412193 70.429955
348 48.302460 59.550922 70.978523
349 50.008305 0.267184 73.343513
350 51.671036 2.686332 72.163048
351 53.471687 2.170203 70.561745
352 52.030949 3.039511 69.167122
353 52.250843 2.487077 65.821220
354 52.689728 3.591592 61.801552
355 52.326096 4.590563 57.673710
356 51.473083 4.562596 53.365879
357 48.531792 4.417060 51.125710
358 41.942196 49.127022 53.908745
359 39.600441 48.832474 56.904705
360 37.224644 49.363590 60.917213
361 37.410995 50.646942 65.881866
362 35.006481 53.049110 67.987663
363 33.749908 55.396133 70.118759
364 32.674385 54.108742 71.605415
365 33.676266 55.710331 73.110413
366 31.279167 56.752846 74.609306
367 28.682442 57.223869 72.800774
368 28.103493 58.594761 70.862297
369 28.890335 56.886059 69.788834
370 30.217154 57.098549 66.770485
371 30.627348 57.600296 62.753788
372 31.060415 56.411175 58.316433
373 33.409851 54.706501 55.146709
374 36.752869 54.146267 56.497738
375 31.195414 32.702354 51.663437
376 29.593714 32.647717 55.020733
377 28.614664 34.499619 59.238373
378 29.938412 36.206654 63.886360
379 28.149832 37.220711 67.427895
380 26.662697 38.637173 70.445328
381 28.389744 38.136677 71.801727
382 27.011280 39.249924 73.394020
383 24.020144 39.635017 74.073830
384 22.247492 39.647633 71.555969
385 23.604597 40.834629 69.852806
386 22.979414 39.086987 68.679779
387 22.430235 39.425308 65.365974
388 20.697533 38.671017 61.757393
389 20.055939 38.011471 57.815819
390 21.284622 37.943737 53.705673
391 23.809687 35.768951 52.171223
392 11.886641 59.362961 50.402458
393 10.128981 1.716564 52.714695
394 9.022705 3.392511 56.826370
395 6.638288 1.861541 61.109123
396 7.565337 1.664419 65.026718
397 7.792799 0.959457 68.422569
398 6.355691 2.548909 69.093208
399 5.978776 0.957543 70.835281
400 7.680825 1.171174 73.373047
401 10.829803 1.453498 73.135849
402 12.726036 0.339632 72.065445
403 11.743588 1.094780 70.264748
404 13.198218 59.960159 67.355888
405 15.619826 0.211539 64.130493
406 18.192762 0.207255 60.946621
407 16.421314 0.211873 56.457825
408 13.324579 59.873413 54.675060
409 56.697536 29.001665 49.795959
410 55.572861 28.144087 53.122532
411 56.915890 27.849813 57.771992
412 58.559292 27.753862 62.600170
413 59.887390 30.477636 65.338417
414 0.274976 31.702497 68.468246
415 58.187237 31.125254 69.064613
416 59.312527 30.724125 71.156509
417 57.926846 32.761913 72.777252
418 57.263481 35.020458 70.877655
419 59.206081 35.167747 69.344574
420 57.574284 34.915913 67.872963
421 58.324490 35.677765 64.572083
422 57.572723 36.742428 60.727432
423 58.006683 37.443859 56.613712
424 59.147354 36.909657 52.553143
425 58.465481 34.081211 50.654892
426 29.080507 22.634365 50.710457
427 30.858286 20.940287 53.572044
428 31.516531 19.021955 57.734299
429 30.863758 20.068241 62.726646
430 30.228592 17.942793 66.118416
431 29.386345 16.944761 69.308899
432 31.354446 17.364973 70.303818
433 29.901262 18.077419 72.061119
434 29.296141 16.078268 74.262596
435 28.627033 13.109226 73.501221
436 27.488001 11.729618 71.848541
437 28.606741 12.990489 70.462448
438 27.739861 12.816423 67.131836
439 27.378126 12.080238 63.232365
440 25.123407 12.134478 59.697922
441 23.474335 14.084495 56.157143
442 24.745348 16.431124 53.606396
443 26.389833 19.942614 49.352753
444 26.923412 20.187778 53.136841
445 27.164690 20.679628 58.126663
446 26.410982 21.161554 63.153194
447 28.156057 23.030012 66.248444
448 29.648998 23.858519 69.318069
449 27.661396 24.266968 70.295357
450 28.929466 23.585163 72.222504
451 29.289440 26.075708 73.713097
452 29.554842 28.273827 71.678864
453 31.009335 27.631508 69.791679
454 29.064423 27.708654 68.741669
455 29.329256 27.558355 65.236778
456 29.305149 28.438051 61.361885
457 29.393270 28.597015 57.300453
458 28.391039 26.945652 53.436958
459 25.751255 24.547754 52.435223
460 12.654009 55.551804 51.173485
461 10.990935 55.347122 54.612106
462 9.228685 55.852093 58.950413
463 10.022064 57.593185 63.692051
464 8.519808 56.591488 67.293640
465 6.171461 56.436958 69.987167
466 7.345913 56.083771 71.866890
467 5.535175 57.335011 72.804924
468 3.040236 55.810791 73.940292
469 1.625305 54.201347 71.688759
470 1.225817 55.815067 69.853554
471 2.308630 54.287636 68.735107
472 1.594860 53.606926 65.430367
473 2.118813 53.254242 61.513840
474 1.832357 53.147137 56.819763
475 2.527629 54.294601 52.450829
476 5.686701 55.252712 50.746864
477 9.464773 40.522446 51.700363
478 8.513743 38.554161 54.563747
479 9.655175 37.735355 59.169937
480 11.770099 36.662731 63.697926
481 12.165444 38.641373 67.142876
482 12.230639 39.271320 70.509148
483 10.511690 37.923077 71.033089
484 11.777709 37.677135 73.040924
485 12.212533 39.802471 75.198814
486 12.771125 42.757267 74.507523
487 14.236911 43.770538 72.832115
488 12.508969 43.345909 71.552467
489 12.861559 44.021183 68.201515
490 12.207786 45.711266 64.561996
491 12.799652 47.369232 60.358604
492 13.729122 46.682796 55.685329
493 12.019578 46.007496 52.602787
494 44.856743 27.894909 49.350861
495 45.576900 26.450890 52.745571
496 44.557182 24.861399 56.959938
497 42.658241 25.978588 61.566673
498 43.449615 24.176167 65.065758
499 43.136440 22.580286 67.974792
500 44.307426 23.430216 69.665001
501 42.196491 23.284180 70.762611
502 41.508759 20.545807 71.830376
503 41.686466 18.210117 69.672768
504 40.528538 17.878716 67.540268
505 42.288540 18.958202 66.812553
506 42.509041 19.556181 63.465523
507 44.240551 19.042011 59.752419
508 44.981182 19.207119 55.755440
509 43.499302 20.112667 51.859131
510 43.724651 23.313669 50.104809
511 0.796560 57.829704 50.336685
512 2.900433 58.500835 53.377495
513 4.918348 57.358006 57.435345
514 5.072652 57.128162 62.553047
515 6.047255 54.166874 65.137085
516 6.047551 52.140354 67.807823
517 7.791893 52.638905 69.098648
518 6.063467 52.704281 70.776314
519 6.802666 50.547302 72.834999
520 7.142340 48.099911 71.049210
521 5.107485 48.324673 69.665024
522 6.611720 48.212799 68.057510
523 5.376722 48.544735 64.825378
524 4.881369 47.163074 61.520992
525 3.679702 44.163063 59.005913
526 2.745243 45.165829 54.548706
527 0.114803 47.174103 52.671700
528 40.890179 55.835354 52.267788
529 39.959297 57.373394 55.472363
530 40.613758 57.060219 59.894279
531 40.807880 53.169846 63.226566
532 41.337688 52.175594 66.941643
533 42.791504 51.193180 70.074547
534 41.732506 52.851967 71.185158
535 42.520325 51.548454 73.050407
536 44.842091 52.829819 74.732193
537 47.438183 54.436981 74.008278
538 48.870518 53.734646 72.127411
539 47.801598 55.400482 71.160957
540 48.410118 55.961720 67.827972
541 49.210228 58.314293 64.543907
542 49.639236 59.593918 60.614441
543 50.513447 59.413754 56.387630
544 48.323650 0.008314 53.752483
545 41.822472 26.565096 51.210045
546 42.712051 28.863434 54.133453
547 43.492001 30.785460 58.321224
548 42.357777 29.979118 63.257725
549 44.045662 30.323105 66.999702
550 45.987103 30.095104 70.227310
551 48.160633 30.573610 70.039558
552 48.021851 30.244364 72.428558
553 51.066441 30.488771 73.691307
554 53.288113 29.781603 71.817764
555 53.102703 27.716473 70.497345
556 52.169655 29.127100 69.069008
557 52.520588 27.550167 65.722824
558 52.701920 26.434704 61.777752
559 52.718166 24.414970 57.989910
560 51.259739 22.846331 54.212742
561 48.949551 24.088089 51.594425
562 54.135498 35.079468 52.697479
563 55.270096 34.045902 56.160076
564 56.192322 31.748837 60.156792
565 55.377804 30.769976 65.096230
566 56.870575 27.858719 67.500214
567 57.206139 26.074022 70.099960
568 58.652168 26.840946 71.608803
569 56.657513 26.895790 72.950256
570 56.799389 24.431805 74.619644
571 57.864384 21.793690 73.176239
572 57.127201 20.527000 71.213074
573 58.425529 21.964331 70.193756
574 58.120075 22.394360 66.802811
575 58.780659 22.983141 62.870083
576 58.167988 23.427200 58.274708
577 56.850456 24.317110 53.725136
578 58.127792 25.555613 50.587582
579 35.627827 27.735876 51.393448
580 38.036079 27.784334 54.242805
581 39.319500 26.923819 58.551567
582 38.026424 28.235929 63.331497
583 38.708752 26.984226 67.144592
584 37.769066 25.662989 69.904907
585 37.703457 27.156918 71.560722
586 35.387226 26.554720 71.554657
587 33.781952 24.209467 73.166382
588 33.673515 21.460171 71.506500
589 32.013279 20.949938 69.769791
590 33.710079 21.371519 68.473808
591 34.588737 19.141706 65.837692
592 35.362034 17.813074 62.037350
593 36.302822 18.138391 58.032013
594 36.744633 20.453882 54.459675
595 36.034286 23.996593 53.872055
596 15.089520 31.446733 49.669510
597 15.727984 32.584705 53.175274
598 15.762182 32.092659 58.075199
599 15.512609 31.132215 63.089905
600 17.743546 31.895449 66.396248
601 18.886574 32.167439 69.682983
602 16.875107 32.924355 70.346146
603 17.619282 32.055038 72.426880
604 20.140251 32.175678 74.180458
605 22.808327 31.860996 72.680412
606 23.093273 30.041824 71.059105
607 22.817429 31.719059 69.663315
608 22.904305 30.771729 66.299438
609 24.183437 30.716763 62.377579
610 24.900579 30.982887 58.243664
611 23.622593 32.543846 54.650059
612 20.267147 33.889450 54.526787
613 19.687340 30.836874 49.709488
614 19.494284 29.644684 53.095711
615 19.882294 31.240438 57.633739
616 20.127697 33.327671 62.296429
617 17.898594 35.808346 64.660995
618 17.096241 37.284447 67.304955
619 15.911125 36.257092 68.880150
620 18.034853 36.352890 70.019958
621 17.755379 38.042046 72.611412
622 16.326836 40.705254 72.144554
623 16.876154 42.383286 70.444122
624 16.088970 40.796009 69.118217
625 16.026106 41.509079 65.705299
626 15.265667 40.008270 61.983925
627 14.823734 38.404606 57.594669
628 16.022902 37.024933 53.270733
629 18.859612 35.284794 51.456234
630 23.421417 28.322071 52.156212
631 24.496395 27.314175 55.329296
632 24.476082 26.517982 60.232212
633 24.674290 26.243467 65.332848
634 24.336647 23.525270 68.325333
635 23.846277 22.191885 71.276215
636 25.690750 21.791500 72.444786
637 24.465813 23.023550 74.102432
638 23.313452 20.865105 75.790764
639 22.197781 18.559441 73.918747
640 20.727215 19.536785 72.182785
641 22.034931 18.297083 70.909767
642 21.453674 18.724489 67.450012
643 21.817793 17.759155 63.509579
644 21.493727 17.705906 59.454899
645 20.414948 19.864298 55.623268
646 19.645401 23.240211 54.869930
647 57.623497 3.742841 49.133221
648 56.860519 4.418468 52.814091
649 56.722542 5.587422 57.425575
650 58.465973 5.408597 62.247192
651 58.131065 7.703520 65.605309
652 58.704506 9.296236 68.611076
653 57.910378 7.856914 70.129593
654 59.719418 8.796792 71.397102
655 58.369514 10.878554 73.038017
656 56.163212 12.539643 71.440590
657 56.294212 13.984456 69.467560
658 55.648224 12.143715 68.475220
659 55.535412 12.554994 65.035858
660 54.404594 13.759842 61.312809
661 53.607967 14.414958 57.363865
662 53.442051 12.093361 53.702179
663 55.265060 9.176558 52.929131
664 9.604866 50.858150 52.049347
665 8.542989 49.896851 55.431263
666 8.428928 46.418030 58.827625
667 7.994373 44.406010 63.012428
668 4.788792 43.093388 65.066650
669 2.690390 42.063473 67.566345
670 4.320934 40.754921 68.390099
671 3.306275 41.519573 70.438370
672 3.027319 39.093830 72.320969
673 1.984577 37.111588 70.473282
674 0.498594 38.608643 69.184235
675 1.868029 37.988907 67.570297
676 1.000838 39.082031 64.365082
677 1.559671 39.350517 60.320469
678 1.775660 40.243805 55.785126
679 1.511152 42.675610 51.645592
680 3.591687 44.767365 49.520107
681 13.487463 34.844540 49.696823
682 11.770873 34.510014 52.750816
683 11.278534 34.253681 57.528130
684 11.396404 32.142170 62.157333
685 10.381904 33.338531 65.946991
686 10.721426 34.237511 69.406227
687 10.386731 32.109749 70.080780
688 10.990207 33.082275 72.187622
689 8.841692 33.962029 74.363884
690 6.450059 35.882278 73.820541
691 7.125060 37.856792 72.495132
692 6.054073 36.734474 70.941025
693 6.772839 37.376015 67.690399
694 6.315176 38.565292 63.841499
695 6.248848 40.629093 59.618977
696 6.832218 42.331085 55.152401
697 6.234254 42.736023 51.760307
698 17.978689 16.783659 51.511890
699 18.445822 15.352706 55.012905
700 17.405441 14.328134 59.404579
701 15.795106 13.228362 63.402561
702 15.393872 12.189272 66.984261
703 16.036394 10.675090 69.748703
704 15.374355 12.101546 71.328842
705 13.982895 10.270561 71.948959
706 14.416948 7.554151 73.687027
707 15.953399 5.096620 72.238503
708 15.464635 3.342941 70.607925
709 16.375391 4.823910 69.276756
710 16.557186 4.174321 65.905479
711 18.261749 4.426292 62.218304
712 19.031122 5.349004 58.268154
713 18.055365 7.526378 54.389915
714 17.028421 10.815525 53.561928
715 46.173557 53.054630 50.287609
716 45.221802 52.117649 53.655651
717 46.786358 50.550064 57.986652
718 48.469826 48.459072 62.340611
719 51.151230 49.368729 65.223465
720 52.971806 49.496300 68.160286
721 51.683834 50.395023 69.747818
722 52.963608 48.853241 71.095085
723 54.888691 50.223953 73.299103
724 57.154102 52.469261 72.657928
725 58.848606 51.889763 70.941170
726 57.886505 53.581844 69.935341
727 57.256042 53.825565 66.682373
728 55.611904 55.555923 63.348129
729 54.161926 56.446754 59.016613
730 54.688728 55.681389 54.845654
731 52.892338 57.287884 52.105415
732 4.199268 23.316790 50.826141
733 5.761956 23.436440 54.172852
734 6.778042 21.445654 58.179119
735 8.038557 20.781017 62.677757
736 8.970778 18.270672 65.835831
737 8.625527 17.093332 68.936996
738 10.542332 16.929201 70.061226
739 9.239927 18.124298 71.699272
740 8.812880 16.204630 74.025230
741 8.072574 13.319816 73.150352
742 6.330943 12.454150 71.672493
743 7.711762 13.178668 70.131203
744 6.422795 13.216146 66.930794
745 5.102214 12.419029 63.223591
746 3.149533 12.884232 59.043228
747 3.517807 11.634549 55.309887
748 4.052355 13.617477 52.269348
749 34.022469 3.434991 49.416492
750 32.357647 4.009270 52.696964
751 32.552990 4.037024 57.251755
752 33.687073 0.661217 60.943001
753 35.097488 0.918046 64.340691
754 34.131706 1.512852 67.495415
755 32.082958 0.672156 67.533897
756 32.824341 59.760525 69.608467
757 32.602982 1.010615 72.593742
758 34.772236 3.082892 73.026726
759 37.056999 2.229141 72.684006
760 36.536896 2.641039 70.598610
761 38.759422 4.109445 68.237526
762 39.976460 5.079957 64.464973
763 40.969910 6.089289 60.013344
764 41.808937 6.185676 55.271118
765 40.102505 6.675987 52.115250
766 3.981333 27.377234 52.164852
767 4.771297 27.746927 55.879807
768 6.363527 28.594646 60.566422
769 8.131968 28.550661 65.348709
770 11.514290 29.376478 67.410858
771 13.852427 29.287441 69.668068
772 13.698112 30.751499 71.342827
773 13.783073 28.725451 72.629677
774 16.577517 27.991348 73.968369
775 19.757582 27.831963 73.489532
776 21.321573 26.767027 71.929153
777 20.320257 28.085730 70.508636
778 19.885941 27.212730 67.288368
779 19.545589 27.322144 63.289707
780 17.989729 27.549540 58.909500
781 15.845772 26.656950 54.681091
782 12.625504 26.693329 53.038090
783 14.805493 12.205771 50.966694
784 13.405089 13.999389 53.826973
785 13.511428 12.692418 57.893696
786 10.652278 12.477044 61.737789
787 11.200424 10.558211 64.856293
788 11.008266 9.256918 68.032455
789 11.008559 11.152031 69.235336
790 9.417662 9.919505 70.522858
791 9.697418 7.506307 72.563774
792 10.818470 4.814872 71.292786
793 9.427088 4.445330 69.272545
794 11.408070 4.077357 68.418800
795 11.877814 4.596843 65.077599
796 13.528198 4.111026 61.404739
797 14.410251 3.873357 57.419830
798 14.232658 3.459246 52.928158
799 16.000269 2.998904 49.968700
800 11.415106 5.343370 50.807392
801 12.661747 8.167555 52.864700
802 14.457070 8.355865 57.109993
803 15.910226 8.708178 61.986977
804 18.894529 8.190827 64.852974
805 19.918030 7.365000 67.867393
806 20.232185 9.317623 68.901367
807 18.800835 8.281363 70.525238
808 20.121828 7.161533 73.124466
809 22.298185 5.066895 72.490051
810 22.283121 2.990368 71.201332
811 21.934179 4.397305 69.555458
812 21.681404 3.015103 66.426201
813 22.774639 2.390004 62.527237
814 23.392830 1.540434 58.061920
815 21.403418 1.411818 54.048298
816 18.337725 3.316262 53.127468
817 58.190388 0.524044 50.258251
818 56.377457 0.665042 53.623543
819 55.223366 0.903350 58.141407
820 57.420219 1.105296 62.769211
821 56.575314 2.938315 66.258011
822 56.220219 4.640033 69.435440
823 57.072693 2.904182 70.594238
824 56.842152 4.452056 72.388306
825 54.309383 5.707922 73.622421
826 52.402122 6.918323 71.463425
827 53.745010 8.370350 69.975441
828 52.749660 7.125937 68.460480
829 53.940636 7.668008 65.243446
830 54.316784 8.852581 61.383400
831 55.943710 9.920752 57.699577
832 58.405876 10.364253 54.232750
833 58.782864 8.501860 50.950096
834 10.061234 13.137471 51.883739
835 8.113124 13.640668 55.051540
836 7.117763 15.565370 59.111683
837 5.839717 16.497919 63.576267
838 4.490135 19.639391 65.884453
839 4.418638 21.268959 68.542694
840 2.647472 21.065542 69.881729
841 4.256935 19.927134 71.248184
842 5.600280 21.706179 73.277817
843 6.615545 24.511982 72.165474
844 8.104895 25.423780 70.458473
845 6.581160 24.616648 69.114807
846 7.599966 24.274939 65.874290
847 8.862425 25.028761 62.075817
848 10.452711 24.561081 57.793598
849 12.800716 22.311689 54.202892
850 12.867802 19.902708 51.753799
851 40.332989 32.218613 52.192593
852 39.235455 31.720247 55.795319
853 38.020638 32.319607 60.267033
854 40.028839 33.731541 64.770569
855 39.231499 35.800732 68.238235
856 38.878262 37.416878 71.480049
857 39.445747 35.584564 72.655678
858 38.988811 37.054661 74.480331
859 36.272789 38.064587 75.598671
860 34.317707 39.017117 73.505188
861 35.776737 40.153034 71.873108
862 34.834419 38.695198 70.529411
863 34.419037 39.596962 67.240349
864 32.668087 39.960476 63.589401
865 31.141447 38.628365 59.666805
866 31.438278 38.547737 55.456375
867 32.209717 35.654327 53.683464
868 45.305328 48.690056 50.715744
869 45.645687 47.709034 54.074829
870 43.927467 47.191978 58.304352
871 42.730328 48.080368 62.800213
872 41.628246 46.059334 66.185478
873 40.259403 45.455067 69.231667
874 41.978565 46.199192 70.461029
875 40.194916 46.890911 71.895355
876 39.369003 44.596321 73.527672
877 39.145054 41.988651 71.599457
878 38.053204 42.667301 69.469246
879 38.911011 40.735645 68.861488
880 39.201492 40.124676 65.492088
881 39.216190 38.270607 61.857178
882 40.220814 37.548058 57.880001
883 41.173473 38.728329 53.633331
884 43.622272 40.315796 51.241104
885 27.585901 9.471453 50.601982
886 26.794207 7.576882 53.832867
887 27.955889 7.867528 58.075314
888 28.177355 6.661638 63.078075
889 30.388645 7.738790 66.335678