glycerol

3 atom types
2 bond types
1 angle types

3000 atoms
2000 bonds
1000 angles

0.000000 49.426701 xlo xhi
0.000000 49.426701 ylo yhi
0.000000 49.426701 zlo zhi

Masses

1 31.000000 # C
2 30.000000 # C1
3 31.000000 # C2

Atoms

1 1 1  24.767418 42.299034 48.894764
2 1 2  22.702999 41.776337 48.897697
3 1 3  21.235483 43.202259 47.675735
4 2 1  8.150645 13.162580 41.658390
5 2 2  9.760667 14.515334 42.443001
6 2 3  10.547418 13.976452 44.525806
7 3 1  35.229034 39.302582 43.513226
8 3 2  33.513332 39.874001 44.906666
9 3 3  33.621937 42.111294 45.439034
10 4 1  47.002583 7.403872 0.795483
11 4 2  47.947330 5.413667 0.206667
12 4 3  0.721041 5.559353 49.191856
13 5 1  37.331291 27.444517 3.603226
14 5 2  39.265667 26.836334 2.785336
15 5 3  39.319675 24.831289 1.751290
16 6 1  1.304194 15.617096 42.255161
17 6 2  49.262032 16.808666 43.640663
18 6 3  1.157420 18.889355 43.390320
19 7 1  6.932257 4.765485 9.069354
20 7 2  8.251999 4.998667 7.271002
21 7 3  6.824196 5.874195 5.742581
22 8 1  7.260968 18.795162 30.034840
23 8 2  6.922000 16.617666 29.426670
24 8 3  6.077097 16.428389 27.223225
25 9 1  45.151615 48.388065 1.731613
26 9 2  46.815334 48.092999 3.159666
27 9 3  47.237423 0.490074 4.584839
28 10 1  6.947743 23.567097 41.947746
29 10 2  8.680999 22.104666 41.871002
30 10 3  9.885806 21.984518 40.111935
31 11 1  48.667419 7.286772 23.508387
32 11 2  47.862000 9.477666 23.049000
33 11 3  45.812901 9.686453 23.284515
34 12 1  44.155807 15.983225 8.914840
35 12 2  46.079666 15.795333 9.723666
36 12 3  46.670322 17.631290 11.209999
37 13 1  49.116779 12.333225 46.015484
38 13 2  1.371635 10.913667 46.337337
39 13 3  0.486851 9.419677 47.711613
40 14 1  14.986452 24.642260 9.428064
41 14 2  15.576666 23.108665 10.948667
42 14 3  15.533549 23.704193 13.057742
43 15 1  5.241934 10.638710 37.310966
44 15 2  2.826998 10.718334 37.462002
45 15 3  2.011290 12.602257 36.683872
46 16 1  32.643551 24.471613 24.705484
47 16 2  33.042000 25.539000 26.673666
48 16 3  35.291611 25.688066 26.419033
49 17 1  13.189032 33.220646 3.499677
50 17 2  14.517667 31.748333 4.602000
51 17 3  13.249033 29.923550 3.532580
52 18 1  4.002582 48.540970 43.704838
53 18 2  4.181667 1.193302 43.177998
54 18 3  4.843225 1.702331 41.122257
55 19 1  31.427099 20.785162 28.644836
56 19 2  29.849669 21.961334 29.563999
57 19 3  29.942257 23.946774 28.738066
58 20 1  9.114515 34.663868 26.454840
59 20 2  7.907667 33.477333 24.728001
60 20 3  8.202259 34.431614 22.647741
61 21 1  21.664839 11.999033 1.710323
62 21 2  22.539333 9.943001 2.384334
63 21 3  24.690001 10.482258 2.532579
64 22 1  46.264839 4.972580 19.242256
65 22 2  48.501331 4.453333 19.511999
66 22 3  49.146450 4.472902 21.757744
67 23 1  12.203874 24.378386 32.503868
68 23 2  12.935667 26.285000 31.672335
69 23 3  12.178066 27.000324 29.659678
70 24 1  15.098387 42.019356 24.962259
71 24 2  16.884666 40.732666 25.461332
72 24 3  16.474516 38.483547 25.193548
73 25 1  34.408066 3.925806 27.345161
74 25 2  35.688663 3.736666 29.136665
75 25 3  37.928387 3.938710 28.950323
76 26 1  7.848387 49.224514 42.163227
77 26 2  9.877999 48.814335 41.757000
78 26 3  10.736452 1.400721 41.809032
79 27 1  36.757095 44.652905 45.953873
80 27 2  38.111000 43.049999 46.635002
81 27 3  38.451939 41.220325 45.443550
82 28 1  22.623873 34.270000 33.330647
83 28 2  21.945665 36.260334 32.377666
84 28 3  20.100000 36.480644 33.524837
85 29 1  5.449033 21.171612 22.957096
86 29 2  5.968667 22.484667 24.587332
87 29 3  6.239033 24.567417 23.381615
88 30 1  0.634517 29.157419 39.981613
89 30 2  2.051666 28.733334 38.383663
90 30 3  1.077096 26.841614 37.598385
91 31 1  25.265162 24.529678 24.076773
92 31 2  23.464333 23.220331 24.768332
93 31 3  24.085161 21.265806 23.849678
94 32 1  1.673871 27.045160 1.715805
95 32 2  49.045361 27.841665 1.774332
96 32 3  47.433800 26.342903 2.121291
97 33 1  7.302904 17.358711 16.854195
98 33 2  5.135667 17.972668 17.020000
99 33 3  4.959677 19.225483 15.130322
100 34 1  41.758389 10.520322 18.106127
101 34 2  40.136669 10.730333 19.437002
102 34 3  39.008064 12.645808 18.993225
103 35 1  12.207741 28.026773 39.621613
104 35 2  10.027333 27.903334 39.383667
105 35 3  8.725807 29.946451 39.395485
106 36 1  42.635807 39.677418 32.122257
107 36 2  43.045002 37.592667 32.855663
108 36 3  41.014511 36.709354 32.270000
109 37 1  33.042259 35.019676 5.978710
110 37 2  35.169998 35.396999 6.487332
111 37 3  35.635487 35.365162 8.806774
112 38 1  43.783550 24.546776 46.467739
113 38 2  45.666000 23.656666 45.381668
114 38 3  45.215485 24.840324 43.480320
115 39 1  45.267422 37.682903 35.136452
116 39 2  46.743999 38.952999 36.251335
117 39 3  48.242256 39.536774 34.588066
118 40 1  35.971611 34.291611 33.445808
119 40 2  34.541664 33.483334 32.066666
120 40 3  34.401291 35.308067 30.613548
121 41 1  8.415161 23.740322 32.078064
122 41 2  7.907334 21.518335 32.752666
123 41 3  9.831614 21.175806 33.699997
124 42 1  0.327096 2.852903 24.970968
125 42 2  0.973665 4.965666 25.213333
126 42 3  0.843870 5.870967 27.207096
127 43 1  7.881614 25.928385 3.489356
128 43 2  6.159666 27.037998 2.656668
129 43 3  4.423225 25.765808 3.182258
130 44 1  38.756126 18.529354 14.460648
131 44 2  37.859333 17.899334 12.549334
132 44 3  38.150646 19.765484 11.168064
133 45 1  13.732903 22.947742 26.910645
134 45 2  12.839001 22.756998 29.039000
135 45 3  11.429678 20.933228 28.501612
136 46 1  40.687096 34.110001 4.103227
137 46 2  39.652664 34.227669 6.118000
138 46 3  41.252258 34.119034 7.725806
139 47 1  47.824196 16.564194 32.328068
140 47 2  48.424667 15.202002 33.966999
141 47 3  0.477495 13.593225 33.528709
142 48 1  12.782902 47.549030 23.219034
143 48 2  13.503666 47.084335 21.094666
144 48 3  15.031612 48.741291 20.372257
145 49 1  11.672902 31.556452 24.407742
146 49 2  9.727001 30.668667 24.693668
147 49 3  8.994516 29.230965 23.272902
148 50 1  38.015484 47.573227 3.733550
149 50 2  36.911999 49.160000 4.806001
150 50 3  34.789032 48.129353 4.955807
151 51 1  9.403871 3.633224 28.358065
152 51 2  11.417000 4.731667 27.531668
153 51 3  10.341289 6.111612 26.153545
154 52 1  14.703226 4.811935 43.429352
155 52 2  12.851333 3.763333 43.102661
156 52 3  11.266129 4.094517 44.556774
157 53 1  27.344837 11.766452 41.230324
158 53 2  25.493999 13.084001 41.604336
159 53 3  24.642260 11.750322 43.238712
160 54 1  46.516449 45.426777 1.249999
161 54 2  44.400665 44.835003 0.813333
162 54 3  43.821934 42.720001 1.470647
163 55 1  24.178707 5.427740 37.152905
164 55 2  24.544666 7.448333 36.459000
165 55 3  26.930643 7.545807 36.242905
166 56 1  17.997742 0.878387 5.711613
167 56 2  16.001331 1.730000 5.252335
168 56 3  15.818064 3.916451 5.379679
169 57 1  23.003223 26.731936 26.984194
170 57 2  22.286001 26.629333 24.879667
171 57 3  20.248064 27.356129 24.966129
172 58 1  4.863225 5.044839 1.454194
173 58 2  6.397668 4.912001 49.390366
174 58 3  7.727419 6.649354 48.916374
175 59 1  17.051935 43.394512 13.179032
176 59 2  17.241669 41.710667 11.649002
177 59 3  18.955809 42.149677 10.127419
178 60 1  32.351612 2.848710 34.108387
179 60 2  33.533001 3.212000 32.258331
180 60 3  33.316128 5.485485 31.583548
181 61 1  41.403873 42.302258 36.585804
182 61 2  39.440666 42.891331 37.383335
183 61 3  39.563873 45.253227 37.295807
184 62 1  32.709999 39.733547 35.450001
185 62 2  32.570667 37.499001 35.458332
186 62 3  32.749031 37.088711 33.196774
187 63 1  40.783871 15.321934 21.697096
188 63 2  43.106663 15.645334 21.827000
189 63 3  43.754837 13.913227 20.517094
190 64 1  8.539032 47.788071 35.276131
191 64 2  8.136333 0.354634 34.241333
192 64 3  6.107097 49.133869 34.739033
193 65 1  23.947420 6.979676 3.167421
194 65 2  26.027666 7.103333 2.447999
195 65 3  26.696775 5.044518 1.422580
196 66 1  6.949032 47.113873 24.743872
197 66 2  8.567334 46.982666 26.323999
198 66 3  9.246775 49.043224 26.698065
199 67 1  17.414839 3.686774 47.307095
200 67 2  15.466333 4.726999 47.673668
201 67 3  15.417739 6.875160 48.063869
202 68 1  39.236774 18.380646 18.416452
203 68 2  37.782330 20.336668 18.439667
204 68 3  38.914516 22.025806 17.625805
205 69 1  17.964518 39.317741 28.925484
206 69 2  20.295336 40.059002 28.951000
207 69 3  20.955484 38.627094 30.393551
208 70 1  0.457497 35.942581 33.925163
209 70 2  1.701968 34.254333 33.269665
210 70 3  2.952980 35.014194 31.668711
211 71 1  23.133871 6.332903 15.273872
212 71 2  22.197666 4.608000 16.366665
213 71 3  23.525162 3.441291 17.727419
214 72 1  5.259033 21.184515 12.637418
215 72 2  5.792000 22.316668 10.894333
216 72 3  8.016452 21.784517 10.476774
217 73 1  24.937738 21.432257 15.731291
218 73 2  25.823664 19.410667 16.092667
219 73 3  27.455484 20.991934 15.246130
220 74 1  25.158386 45.739033 18.088387
221 74 2  24.151999 44.526001 16.427666
222 74 3  22.015162 45.262581 16.908064
223 75 1  39.763546 9.365163 5.810645
224 75 2  40.419666 10.472333 3.535333
225 75 3  39.516773 8.727744 2.378063
226 76 1  27.498713 42.480968 3.900969
227 76 2  27.603331 41.202671 5.844001
228 76 3  28.650648 42.052582 7.633225
229 77 1  13.868711 34.247421 24.265808
230 77 2  15.178999 35.355335 22.792000
231 77 3  17.346128 35.609680 23.539677
232 78 1  17.586128 43.003548 30.572903
233 78 2  17.581667 45.209000 31.035002
234 78 3  18.822582 45.907745 32.725803
235 79 1  0.885482 1.385806 35.550323
236 79 2  1.461334 2.190667 33.531666
237 79 3  49.276699 3.854193 33.073872
238 80 1  26.100967 20.320969 48.381939
239 80 2  24.795666 20.567667 46.787334
240 80 3  23.204193 22.090000 46.753555
241 81 1  45.621937 38.729355 45.008064
242 81 2  47.170334 39.644669 46.699997
243 81 3  48.953548 39.390644 45.285805
244 82 1  2.142257 19.837097 33.216129
245 82 2  4.390001 21.191334 33.371998
246 82 3  5.260645 19.269678 32.399677
247 83 1  9.891935 47.140648 7.330000
248 83 2  10.216335 45.382336 8.525998
249 83 3  10.334193 45.642258 10.888063
250 84 1  14.486773 12.911289 34.311611
251 84 2  13.958334 11.408665 36.025333
252 84 3  16.077744 11.589033 37.112255
253 85 1  23.368711 40.596775 40.681938
254 85 2  21.750334 38.992664 41.344666
255 85 3  19.958065 39.633224 40.094517
256 86 1  26.830000 9.047419 9.706777
257 86 2  26.744333 7.485000 8.167000
258 86 3  27.200645 5.515162 8.931612
259 87 1  9.414192 14.663549 23.709030
260 87 2  7.751333 13.902999 25.148666
261 87 3  9.083228 13.797419 27.023228
262 88 1  39.256775 18.065161 42.090000
263 88 2  38.624672 20.007000 41.318001
264 88 3  36.350323 19.790323 41.353870
265 89 1  37.832901 27.702902 39.222900
266 89 2  37.747330 29.756334 38.303665
267 89 3  38.669998 30.688385 40.230324
268 90 1  10.162257 49.379997 37.599682
269 90 2  10.998333 47.381332 38.191002
270 90 3  13.020646 46.813549 37.465805
271 91 1  35.205482 15.716128 13.889676
272 91 2  34.514999 17.227333 12.374332
273 91 3  32.731934 18.537416 13.054193
274 92 1  6.600645 46.385483 13.824840
275 92 2  4.915000 45.525333 12.528335
276 92 3  4.963549 47.253227 10.950645
277 93 1  12.129033 34.169357 15.666773
278 93 2  14.184666 33.241001 15.955334
279 93 3  13.341613 31.031614 16.139999
280 94 1  16.320967 5.410967 21.670322
281 94 2  14.105999 5.176001 21.808666
282 94 3  14.236131 7.298709 21.545160
283 95 1  20.643871 48.733547 23.625162
284 95 2  19.645666 1.229634 24.016001
285 95 3  17.577742 1.352977 23.205482
286 96 1  25.793545 37.089031 7.713873
287 96 2  25.654333 36.611000 9.945666
288 96 3  24.080965 35.009678 10.338387
289 97 1  38.091934 43.324520 34.172901
290 97 2  39.044998 41.369999 33.618000
291 97 3  39.749680 42.478706 31.382259
292 98 1  48.113865 43.594837 27.258389
293 98 2  48.684330 45.192005 26.194664
294 98 3  48.694195 47.153545 27.435808
295 99 1  35.029678 28.159033 44.395161
296 99 2  35.310333 30.203667 45.385334
297 99 3  36.844517 30.970968 43.821938
298 100 1  27.717096 1.906451 13.736773
299 100 2  27.024332 3.538667 12.451333
300 100 3  24.831291 4.070003 12.600968
301 101 1  15.139030 15.380968 4.220644
302 101 2  14.631999 14.161333 2.426333
303 101 3  15.865804 12.388063 2.084837
304 102 1  12.020646 11.550645 21.975485
305 102 2  13.195001 11.168666 20.023666
306 102 3  15.275805 10.863547 20.906128
307 103 1  22.941290 2.806452 25.451937
308 103 2  24.536335 3.381000 26.851999
309 103 3  26.640968 3.570323 26.152580
310 104 1  11.618065 9.721937 28.379999
311 104 2  11.983665 9.975334 26.238998
312 104 3  10.163548 10.315485 24.861614
313 105 1  11.905807 45.725159 48.688065
314 105 2  12.764667 45.670998 1.413967
315 105 3  14.492580 44.366776 1.281045
316 106 1  6.777099 4.110326 17.619032
317 106 2  6.173333 6.057333 16.239666
318 106 3  3.990001 5.692902 15.463225
319 107 1  7.244516 41.189034 30.785162
320 107 2  9.195666 42.383999 31.134666
321 107 3  9.350323 44.286774 30.044840
322 108 1  21.763546 23.951612 43.996452
323 108 2  20.293333 25.029667 42.691002
324 108 3  20.406128 24.937420 40.501610
325 109 1  27.491938 48.903225 43.751938
326 109 2  29.305334 48.580666 42.484665
327 109 3  28.501287 1.282977 41.818062
328 110 1  16.483870 43.194515 17.696129
329 110 2  18.393000 44.364666 17.249666
330 110 3  18.359678 45.855808 15.549032
331 111 1  35.275482 32.738388 21.197416
332 111 2  34.785667 34.882999 21.966999
333 111 3  32.747097 34.078068 22.900967
334 112 1  37.989357 18.816776 23.992260
335 112 2  38.666332 17.717667 22.202332
336 112 3  40.378708 18.967743 21.695484
337 113 1  38.402901 47.819679 8.335807
338 113 2  37.829670 45.701000 8.349667
339 113 3  39.596775 44.836132 7.194838
340 114 1  41.130646 7.100646 9.266773
341 114 2  41.885666 8.744336 10.921666
342 114 3  39.800644 9.433548 11.533225
343 115 1  31.680645 10.710644 38.496132
344 115 2  33.056000 12.555667 38.664001
345 115 3  31.591610 14.191935 38.588707
346 116 1  13.280967 45.160320 40.678711
347 116 2  12.762001 47.264332 41.256664
348 116 3  14.570968 47.811291 42.536777
349 117 1  21.438385 30.272907 39.046772
350 117 2  22.535334 32.173668 39.762333
351 117 3  24.242579 31.757097 41.132580
352 118 1  21.683226 44.441616 36.659679
353 118 2  23.776001 43.733002 36.359333
354 118 3  23.626450 41.776131 37.651291
355 119 1  32.867741 36.785484 13.347742
356 119 2  32.685997 37.292332 15.542333
357 119 3  32.252903 39.546131 15.393871
358 120 1  46.930321 40.327740 25.767096
359 120 2  46.068336 39.447334 24.085333
360 120 3  46.343872 41.356129 22.593227
361 121 1  31.575808 7.817420 2.009678
362 121 2  30.206001 6.127999 1.435999
363 121 3  30.585806 6.079354 48.529278
364 122 1  30.920322 26.659676 17.057419
365 122 2  32.920666 26.945335 15.903666
366 122 3  34.780323 26.191612 17.112906
367 123 1  24.716450 5.509678 6.000644
368 123 2  23.878666 4.856666 8.060666
369 123 3  22.099676 3.614840 7.936451
370 124 1  9.981614 2.017741 6.713548
371 124 2  11.787001 2.622332 8.162334
372 124 3  11.088711 3.634837 9.994195
373 125 1  39.289352 2.954194 48.679028
374 125 2  39.701668 3.809000 46.549664
375 125 3  40.258385 1.820323 45.610645
376 126 1  13.763871 27.983870 26.382582
377 126 2  15.485331 29.319668 27.032000
378 126 3  15.824193 31.191292 25.737419
379 127 1  23.317743 16.147419 41.296131
380 127 2  25.186001 17.347000 41.856663
381 127 3  24.326450 19.016771 43.121937
382 128 1  24.193548 41.069031 5.256130
383 128 2  24.651333 41.670330 7.391998
384 128 3  23.268063 40.989674 8.931613
385 129 1  5.320968 32.810966 40.389675
386 129 2  3.693000 31.465334 39.767334
387 129 3  1.955484 32.383873 40.907097
388 130 1  45.633228 0.097421 39.612904
389 130 2  46.667339 0.371671 37.855003
390 130 3  47.666454 47.767990 37.594193
391 131 1  23.440001 10.245807 38.766449
392 131 2  22.002666 11.702332 37.706333
393 131 3  22.161936 13.382902 39.408062
394 132 1  30.054195 6.363226 20.912579
395 132 2  32.226669 6.486335 20.299000
396 132 3  32.566128 7.692258 18.281290
397 133 1  36.709030 35.209034 43.020641
398 133 2  35.862335 33.979668 41.162334
399 133 3  33.537422 34.070000 41.138390
400 134 1  9.080001 20.705162 20.738386
401 134 2  9.619000 18.542334 20.429001
402 134 3  11.500322 18.571934 19.269678
403 135 1  6.299033 9.897420 31.848066
404 135 2  5.985333 11.988000 32.160000
405 135 3  4.194839 12.784193 33.267097
406 136 1  10.349030 36.397095 9.084839
407 136 2  8.365667 35.795666 8.462999
408 136 3  7.083548 36.096451 10.225804
409 137 1  26.827744 43.252262 21.475809
410 137 2  27.457335 41.106667 20.864000
411 137 3  28.950968 41.014194 19.300646
412 138 1  9.120968 24.977741 10.642258
413 138 2  10.384002 26.181334 12.118001
414 138 3  10.819675 27.987099 10.699999
415 139 1  32.609356 12.287097 20.237095
416 139 2  30.973997 12.945334 21.721998
417 139 3  29.391935 11.271935 21.888386
418 140 1  47.750645 11.293550 2.693550
419 140 2  48.936333 13.280668 2.874332
420 140 3  0.489430 13.867743 0.875164
421 141 1  47.360970 25.043224 40.919998
422 141 2  45.490665 26.306669 40.293999
423 141 3  45.332256 25.625483 38.212906
424 142 1  18.773226 30.199034 24.160969
425 142 2  19.605999 32.630333 23.614666
426 142 3  21.007742 32.437420 25.259035
427 143 1  7.960322 29.655483 18.085484
428 143 2  9.697001 28.504000 16.995667
429 143 3  11.714193 28.660324 17.956129
430 144 1  16.149035 10.422579 17.033550
431 144 2  15.914001 8.521999 15.766001
432 144 3  16.190643 9.294515 13.780322
433 145 1  39.652580 29.365160 19.493225
434 145 2  37.793335 28.091999 19.081333
435 145 3  35.751614 29.186132 18.998386
436 146 1  23.677744 12.642903 20.233871
437 146 2  24.490667 10.430000 19.979666
438 146 3  22.915485 9.082580 18.832581
439 147 1  12.623226 0.083223 2.909354
440 147 2  12.617666 0.811000 4.970666
441 147 3  12.843547 48.769600 6.608387
442 148 1  1.269354 11.468709 42.896450
443 148 2  0.589333 12.258333 41.001667
444 148 3  0.347740 10.423227 39.725163
445 149 1  34.531612 14.995162 2.274516
446 149 2  32.332333 14.458333 2.026333
447 149 3  31.859676 13.213870 3.863226
448 150 1  43.098068 29.056454 21.727741
449 150 2  45.266331 29.256334 22.231667
450 150 3  46.661289 28.486128 20.738386
451 151 1  13.088388 7.281937 13.085482
452 151 2  13.107667 5.038333 13.362333
453 151 3  15.271289 4.788708 13.390645
454 152 1  22.661936 39.202259 21.561613
455 152 2  24.436333 38.167336 20.742002
456 152 3  25.324839 39.375164 19.193872
457 153 1  23.087099 36.635807 36.579998
458 153 2  23.876333 37.521000 34.722668
459 153 3  23.993227 39.672901 34.360321
460 154 1  11.929351 44.806774 5.787097
461 154 2  11.905000 42.731670 5.294334
462 154 3  10.736773 42.025482 3.505807
463 155 1  4.901613 47.659355 38.160965
464 155 2  6.595334 47.838665 39.414997
465 155 3  8.041935 46.193546 39.705162
466 156 1  20.921614 15.067420 36.726452
467 156 2  23.030001 14.554332 36.277332
468 156 3  24.107740 15.708066 34.628384
469 157 1  29.028387 43.893547 12.040323
470 157 2  30.096666 43.725670 10.133333
471 157 3  30.512581 45.870323 9.771611
472 158 1  19.934519 21.617098 10.167418
473 158 2  19.094000 21.424667 12.217000
474 158 3  21.226452 21.785158 13.353547
475 159 1  31.144516 38.384518 26.818390
476 159 2  32.998333 39.512001 27.152666
477 159 3  33.848385 39.164516 29.292904
478 160 1  48.809029 42.441933 47.064522
479 160 2  48.584000 43.905003 48.884666
480 160 3  0.954268 43.335487 0.712333
481 161 1  14.044517 0.556773 34.430321
482 161 2  14.024333 2.817001 34.235668
483 161 3  11.699031 3.148387 34.331291
484 162 1  9.766773 8.546129 2.442580
485 162 2  7.755333 9.572666 2.752666
486 162 3  6.936450 9.391612 4.879677
487 163 1  21.484838 18.908066 45.144840
488 163 2  19.391001 18.237333 45.258331
489 163 3  17.995806 18.783226 43.673870
490 164 1  2.661290 49.204838 19.833227
491 164 2  2.226667 1.672634 21.108999
492 164 3  4.266129 2.764591 21.078388
493 165 1  18.990969 49.395164 35.437099
494 165 2  20.515999 47.759003 35.142334
495 165 3  21.839354 48.052582 36.959034
496 166 1  37.426449 9.354193 17.465483
497 166 2  39.343334 8.507332 16.750000
498 166 3  39.999355 9.036451 14.788711
499 167 1  46.131935 37.637417 3.731290
500 167 2  45.380665 38.307335 1.687667
501 167 3  46.712257 39.774193 0.619353
502 168 1  23.966129 1.523872 46.196133
503 168 2  24.209999 2.852334 47.896000
504 168 3  24.877743 4.785485 46.625481
505 169 1  31.630322 13.323549 9.718064
506 169 2  30.749666 11.969666 8.034000
507 169 3  32.559032 11.859680 6.895161
508 170 1  2.203873 44.266453 45.255161
509 170 2  3.131000 46.100334 45.882999
510 170 3  2.516773 46.382580 48.000969
511 171 1  39.665161 32.097744 48.344193
512 171 2  38.144669 31.543333 0.463633
513 171 3  37.476131 29.362904 0.560722
514 172 1  35.668064 42.873871 30.956451
515 172 2  35.319668 42.104664 33.140999
516 172 3  33.037743 41.739677 32.764515
517 173 1  45.021938 37.681290 9.577419
518 173 2  44.155666 36.526001 7.836667
519 173 3  44.546772 34.494194 8.828387
520 174 1  6.499678 44.950649 33.782581
521 174 2  7.526333 42.976997 34.786667
522 174 3  9.013870 43.957420 36.183548
523 175 1  19.712902 6.330645 27.507742
524 175 2  21.357334 4.999666 27.868334
525 175 3  20.805807 2.892904 28.498068
526 176 1  41.424839 15.694194 40.047741
527 176 2  42.976665 16.262999 41.647667
528 176 3  42.569679 18.139032 40.179031
529 177 1  17.817097 27.761614 12.374838
530 177 2  19.884998 27.002666 12.287332
531 177 3  19.528063 24.733549 12.445162
532 178 1  17.827097 15.649032 30.611290
533 178 2  16.395332 14.361000 29.348665
534 178 3  14.564516 15.521291 29.779678
535 179 1  7.673872 8.403548 36.501614
536 179 2  9.531334 7.758332 35.682667
537 179 3  10.272903 5.698710 36.040325
538 180 1  10.295162 42.355808 47.202255
539 180 2  10.490666 41.221001 49.048332
540 180 3  10.105806 39.183224 49.035160
541 181 1  34.728390 29.390646 3.105160
542 181 2  36.313332 31.145666 3.090000
543 181 3  35.227421 33.057419 3.372904
544 182 1  20.210646 9.106774 14.666775
545 182 2  21.561333 10.626001 13.927999
546 182 3  21.051291 12.568388 15.017097
547 183 1  42.608387 32.159031 2.187742
548 183 2  42.708000 29.891335 2.843999
549 183 3  40.855160 29.909998 3.980646
550 184 1  46.220646 10.428710 8.679999
551 184 2  45.119667 12.124666 9.627001
552 184 3  45.813545 12.703872 11.687097
553 185 1  31.693548 32.404194 31.049032
554 185 2  32.471333 33.080334 29.096001
555 185 3  31.138712 34.401936 27.914841
556 186 1  31.948708 28.196775 40.165806
557 186 2  32.243999 30.402666 40.645668
558 186 3  33.662903 30.922905 39.057095
559 187 1  35.180645 17.769354 19.769356
560 187 2  35.195000 16.252333 17.992001
561 187 3  36.642906 14.827741 18.777742
562 188 1  3.030645 43.587742 14.412580
563 188 2  3.846333 42.004333 15.987667
564 188 3  5.856129 41.761936 15.213549
565 189 1  14.162258 13.905482 24.215483
566 189 2  14.166334 14.280667 26.521997
567 189 3  15.104194 12.354518 27.100967
568 190 1  24.304518 4.906452 31.106771
569 190 2  25.691000 3.378667 30.126001
570 190 3  24.886127 1.196452 30.424192
571 191 1  16.081614 29.057419 7.545807
572 191 2  16.653002 26.795334 7.794000
573 191 3  16.470001 25.496775 5.993873
574 192 1  2.973871 40.609356 3.801611
575 192 2  1.249332 39.250336 3.306334
576 192 3  0.847097 37.723549 4.950966
577 193 1  36.403229 17.932261 32.898708
578 193 2  35.144669 19.027334 34.451672
579 193 3  35.281933 20.332258 32.713226
580 194 1  39.067097 34.540970 14.410645
581 194 2  38.317001 33.787334 12.312333
582 194 3  36.379032 34.885807 12.283869
583 195 1  36.676453 4.999032 48.313549
584 195 2  34.458000 5.464334 48.180668
585 195 3  34.350323 7.035483 46.597744
586 196 1  6.921290 47.801289 20.952906
587 196 2  7.521001 0.666635 21.032999
588 196 3  9.532581 1.098787 21.977739
589 197 1  34.447742 0.898387 29.413225
590 197 2  33.780334 48.608036 30.712334
591 197 3  35.897095 48.001862 31.365807
592 198 1  23.433868 46.937096 1.427418
593 198 2  24.146667 45.902668 3.246334
594 198 3  23.083870 43.889034 3.771613
595 199 1  2.071290 5.210323 19.620321
596 199 2  3.928334 6.261999 20.381334
597 199 3  3.524515 6.359353 22.549681
598 200 1  20.429676 11.367417 7.055162
599 200 2  20.703667 11.409333 4.913333
600 200 3  18.782902 11.174517 3.593226
601 201 1  27.648388 38.360966 43.349678
602 201 2  29.225000 39.691998 44.258999
603 201 3  30.916775 40.240967 42.708714
604 202 1  27.972582 36.841293 5.760965
605 202 2  29.789667 36.256664 4.540333
606 202 3  30.299034 34.006451 4.491935
607 203 1  21.267740 40.781292 2.767097
608 203 2  20.239666 38.806335 3.439667
609 203 3  20.765808 37.046452 1.807097
610 204 1  10.113548 5.359357 22.683870
611 204 2  8.377667 3.939665 23.627996
612 204 3  6.866128 4.132579 22.049034
613 205 1  38.397743 12.290644 12.648065
614 205 2  39.496666 14.140333 13.297335
615 205 3  39.139999 13.817741 15.647097
616 206 1  16.855164 39.970970 41.722897
617 206 2  18.573334 40.007668 43.307335
618 206 3  18.772581 41.910324 44.518707
619 207 1  35.175808 9.707742 39.252258
620 207 2  36.936001 10.412666 40.409332
621 207 3  38.040001 11.558709 38.646450
622 208 1  3.179032 0.442902 25.949999
623 208 2  4.470333 2.134667 26.716999
624 208 3  6.369032 2.489998 25.605162
625 209 1  38.016773 27.260967 35.660000
626 209 2  40.132000 27.525667 36.379665
627 209 3  41.465809 25.658710 36.487419
628 210 1  12.451291 37.720325 18.395805
629 210 2  14.047334 36.227333 18.598999
630 210 3  15.761934 37.419353 17.641615
631 211 1  25.386454 1.045161 0.860645
632 211 2  25.401665 0.506333 3.046665
633 211 3  25.860645 2.253226 4.372581
634 212 1  46.439354 18.368387 1.711291
635 212 2  48.628666 18.641001 2.078666
636 212 3  0.156526 16.679356 3.276130
637 213 1  46.826775 23.037743 13.959998
638 213 2  48.039005 24.185669 12.349333
639 213 3  47.284191 26.279999 11.950322
640 214 1  36.159355 8.504838 1.562580
641 214 2  35.810997 9.850335 49.344364
642 214 3  34.983547 11.549356 1.104838
643 215 1  43.464516 2.759676 20.854195
644 215 2  42.453331 2.754333 22.696333
645 215 3  40.247742 2.926775 22.632259
646 216 1  28.806131 40.270317 28.514515
647 216 2  30.292336 40.284668 30.331999
648 216 3  29.568064 41.693550 31.978388
649 217 1  18.408386 27.056128 1.265161
650 217 2  16.292667 27.283667 2.099000
651 217 3  16.264839 29.413549 2.490323
652 218 1  35.456127 11.151613 46.475163
653 218 2  33.828999 11.730999 45.130669
654 218 3  35.006771 11.895482 43.034191
655 219 1  17.947741 46.816772 47.387096
656 219 2  19.219667 45.443001 46.320335
657 219 3  17.149355 45.719357 44.809357
658 220 1  0.820323 24.187740 28.032581
659 220 2  0.322003 22.331333 29.076998
660 220 3  1.986129 20.892904 29.539680
661 221 1  3.221612 14.008064 30.296772
662 221 2  1.533333 15.443666 30.007998
663 221 3  2.592904 17.282261 29.127743
664 222 1  40.423874 6.198711 37.453224
665 222 2  38.507668 6.747999 36.776001
666 222 3  38.408062 9.053870 36.487419
667 223 1  35.308064 1.983871 1.768064
668 223 2  34.889000 1.825334 48.880363
669 223 3  35.308388 49.030247 48.744762
670 224 1  22.750000 9.359355 9.415160
671 224 2  22.499666 8.396667 11.421000
672 224 3  22.080647 6.190323 11.433227
673 225 1  32.798386 42.514515 19.342579
674 225 2  34.925335 42.695999 18.419001
675 225 3  34.973873 42.677738 16.373549
676 226 1  41.484840 23.078066 43.313873
677 226 2  41.809330 20.833668 43.241665
678 226 3  40.591938 19.614838 44.708710
679 227 1  38.659031 12.419677 32.846775
680 227 2  39.001335 12.084333 35.130333
681 227 3  38.045162 13.733228 36.357742
682 228 1  32.358707 18.692581 23.790970
683 228 2  32.715004 19.470665 21.733999
684 228 3  33.925808 21.480965 21.756128
685 229 1  30.993868 39.908062 11.564839
686 229 2  30.505999 37.767002 10.782667
687 229 3  30.494837 38.058384 8.698066
688 230 1  25.508066 19.945807 29.006130
689 230 2  25.287666 21.380665 27.409000
690 230 3  25.838709 23.547096 27.832256
691 231 1  8.901291 12.380966 49.055084
692 231 2  7.574000 11.590667 47.426369
693 231 3  8.261936 9.556129 47.129276
694 232 1  2.197100 22.500643 22.096777
695 232 2  2.053000 22.945332 24.239668
696 232 3  49.403473 22.545160 25.093225
697 233 1  25.823547 9.604517 14.982903
698 233 2  26.689001 9.283666 13.026000
699 233 3  26.050966 7.036452 12.730000
700 234 1  18.080647 36.126450 4.106774
701 234 2  16.729000 34.224667 4.234666
702 234 3  17.733871 32.931934 2.741289
703 235 1  12.747096 43.188065 18.086775
704 235 2  13.993334 41.727001 19.361668
705 235 3  12.972902 40.867741 21.163872
706 236 1  23.709354 26.564194 39.978710
707 236 2  25.009665 25.648668 38.229332
708 236 3  23.760323 24.354515 36.939354
709 237 1  41.000000 27.771288 48.954762
710 237 2  40.285332 28.384335 46.598701
711 237 3  41.686455 26.881935 45.722183
712 238 1  35.789032 11.954837 25.556776
713 238 2  33.917000 11.314999 24.333668
714 238 3  32.254196 12.043549 25.381290
715 239 1  32.148708 35.118710 18.385162
716 239 2  30.224001 34.418331 17.408667
717 239 3  28.899033 36.207096 17.387743
718 240 1  0.054192 34.735806 20.241291
719 240 2  0.733333 34.520664 17.963667
720 240 3  49.124119 36.160969 17.137096
721 241 1  49.128708 9.332581 19.973549
722 241 2  1.456967 9.437666 21.668001
723 241 3  2.151367 11.531290 21.316130
724 242 1  47.952904 41.414516 16.058388
725 242 2  48.109665 39.235668 15.360000
726 242 3  49.282581 38.820644 13.552259
727 243 1  41.932579 16.616451 11.920969
728 243 2  41.817997 16.716333 14.201667
729 243 3  42.490646 18.807419 14.504838
730 244 1  20.883871 48.269032 48.715164
731 244 2  20.555332 1.027302 48.099335
732 244 3  19.942900 2.399429 0.348787
733 245 1  32.739677 25.733549 37.983547
734 245 2  33.896000 23.772333 37.666000
735 245 3  35.356777 23.804192 35.739677
736 246 1  29.891935 33.556129 40.892899
737 246 2  27.878664 32.725334 40.803333
738 246 3  27.137096 31.684519 42.612255
739 247 1  43.597095 21.529034 37.357742
740 247 2  42.783001 21.556667 39.489002
741 247 3  44.245483 22.499678 40.959999
742 248 1  2.085161 37.895485 38.820324
743 248 2  2.859667 36.702663 40.562000
744 248 3  5.036452 37.528065 40.660000
745 249 1  33.864838 29.386129 35.604515
746 249 2  33.551331 30.097668 33.411667
747 249 3  35.240646 28.934839 32.331612
748 250 1  11.827418 43.990971 34.879356